% Model:              VLR_3_01V03.mph
% Version:            COMSOL 5.5.0.292
% Date:               Jun 30 2020, 18:41
% Dimension:          2
% Nodes:              1230
% Expressions:        1
% Description:        Electric potential
% Length unit:        cm
% x                       y                        V2 (V)
-0.7796584323248269       -0.6262050214624546      10.000571238467671+0.0024059913334270565i
-0.8991207243305398       -0.437700723188031       10.000571238467822+0.0024059892224843546i
-0.9973802803225136       -0.6433745673233668      9.618488350837419+0.002232673883594011i
-0.9738021402429143       -0.22739699131325278     10.000571238467911+0.0024059870338639824i
-1.1153826415373314       -0.44109088546929454     9.754192766483706+0.0022429986173160446i
-0.8475081686380049       -0.8256094634697637      9.436922206860471+0.002204671919672522i
-0.6237791782731196       -0.7816006248416845      10.000571238467476+0.002405993276162248i
-1                        0                        10.000571238467948+0.002405984751277261i
-1.191631854940011        -0.07561732325341956     9.962314873169477+0.002260675675970183i
-0.6597037322144141       -0.9851573976498216      9.171204591146507+0.0021536767045091994i
-0.4376898420782          -0.8991260212793092      10.000571238467254+0.002405994966817923i
-0.9738007317554538       0.22740302291865597      10.000571238467911+0.0024059824683097513i
-1.1821647510407076       0.15559788549239026      10.079338249424758+0.002260572147686386i
-1.1176625225641867       0.3935954806143807       10.205328941751857+0.0022564014941250815i
-0.8991198055327082       0.4377026105688942       10.000571238467833+0.002405980279507415i
-0.4389838601788732       -1.1029207191168091      8.841239385230956+0.0020869360928911992i
-0.22739672515945517      -0.9738022023936664      10.000571238467076+0.002405996212040646i
-0.7796530336597403       0.6262117430272          10.000571238467698+0.002405978168451561i
-1.0125957330913946       0.6122860523605507       10.352287091866119+0.0022391537358717943i
-0.1890465665677828       -1.1986116922041672      8.332345064435087+0.0019714574467498795i
0                         -1                       10.000571238466996+0.002405996699972502i
-0.6237818533660353       0.7815984898982559       10.000571238467545+0.002405976226143467i
-0.8767993923110549       0.8055361844888264       10.552860902969586+0.002202842343318115i
0.12253536731820604       -1.2199723200143224      8.177807258662398+0.0019345259873444934i
0.2274041180318779        -0.9738004760227548      10.000571238467035+0.002405996212533303i
-0.43771641767720687      0.8991130839309552       10.000571238467348+0.0024059745360560524i
-0.5863119807177679       1.0282702258986656       10.92554577665443+0.0021356324997591635i
0.3823654202545466        -1.1320972576079538      8.708894602757404+0.0020566582188682107i
0.4377125957988251        -0.8991149445310395      10.000571238467167+0.002405994966211128i
-0.2274090882005394       0.9737993153642074       10.000571238467154+0.002405973289583676i
-0.38372795329415005      1.1316973094262868       11.290688505995911+0.002056905460101444i
0.5844101541346147        -1.0299902011993374      9.0699180986809+0.0021343006301436204i
0.6237792660306649        -0.7816005548042074      10.00057123846733+0.0024059932760186497i
0                         1                        10.000571238467051+0.002405972802187083i
-0.12248231138430803      1.2204657760056967       11.82727404343522+0.0019334616050710428i
0.7796514362042091        -0.6262137319036641      10.000571238467497+0.0024059913337088155i
0.8728386434525084        -0.8122711620118538      9.437019470132327+0.002200055983839096i
1.0027606536630493        -0.6211105093301503      9.646881845006618+0.002241052633160894i
0.899119060832621         -0.43770414031336896     10.00057123846761+0.0024059892226483866i
0.22740170280165262       0.9738010400296916       10.000571238467092+0.0024059732899726406i
0.18351138976302916       1.206367307804459        11.726008164944888+0.0019569555701003352i
1.1060324895182045        -0.40945625031866273     9.791054508354987+0.0022594476432220554i
0.9738005383336292        -0.22740385120119241     10.000571238467709+0.002405987033944299i
1.1661025919300827        -0.17462797056013218     9.91662619002843+0.0022692662180784427i
1                         0                        10.00057123846775+0.0024059847510472113i
0.4376936702608554        0.8991241577299441       10.000571238467202+0.0024059745353520743i
0.43755910484687977       1.1047446136515204       11.169301630959858+0.0020844947206479832i
0.6237817702323996        0.7815985562459375       10.00057123846736+0.002405976226059721i
0.6580117749377661        0.9848995343878677       10.826750090618454+0.0021547718194328447i
0.7796600322735768        0.6262030294362725       10.000571238467513+0.002405978168772984i
0.8523563811051078        0.8230835063001561       10.56423277340163+0.002203773871832396i
0.8991214702162085        0.437699190993362        10.00057123846764+0.0024059802796585514i
1.0062077320212126        0.6250399678815248       10.364159966558844+0.002236719007382588i
1.2254465268890946        0.11464641979471708      10.066193725326977+0.00223575959387489i
0.9738023339855035        0.22739616163072368      10.000571238467709+0.0024059824681260714i
1.1282024253426575        0.39382310488069794      10.21317411282505+0.0022492919685454253i
-0.36097876329558465      -0.22613436237435341     10.000571238468257+0.002405988759769744i
-0.4494507061124643       -0.21907547278280007     10.000571238468181+0.0024059885859218006i
-0.39042183555636684      -0.31236323458562987     10.00057123846809+0.0024059902799102406i
-0.48656958901289904      -0.11510879657010833     10.000571238468268+0.0024059867509455104i
-0.37706840713104045      -0.13426425243931556     10.000571238468346+0.002405987122344706i
-0.4201735260211338       -0.044888606967969154    10.000571238468373+0.0024059855386762584i
-0.5                      0                        10.000571238468298+0.002405984750795247i
-0.31236228542449446      -0.3904225949460233      10.000571238467991+0.002405991750790923i
-0.2860681397120547       -0.27916548126148544     10.000571238468225+0.0024059897497688628i
-0.39704723038244266      0.046443010239911625     10.00057123846839+0.002405983933548905i
-0.4865686788481499       0.11511264380582166      10.00057123846826+0.002405982751613023i
-0.22658379255565483      -0.35462530356847166     10.000571238468106+0.0024059911536060993i
-0.2190743997688595       -0.4494512291293839      10.00057123846786+0.0024059929076524498i
-0.3999496723586556       0.14159802793093873      10.000571238468332+0.002405982257664458i
-0.4494512291293839       0.2190743997688595       10.000571238468192+0.0024059809164789316i
-0.11511264380582166      -0.4865686788481499      10.000571238467765+0.0024059936600276757i
-0.13567531472421782      -0.37295891806508197     10.000571238468082+0.0024059915315980253i
-0.3387197543746866       0.2093073439167747       10.000571238468313+0.002405981031908828i
-0.3904225949460233       0.31236228542449446      10.000571238468105+0.0024059792223899887i
-0.050654423850324495     -0.4126367876943561      10.000571238467991+0.002405992289911206i
0                         -0.5                     10.000571238467732+0.002405993936996786i
-0.289999098667745        0.2977345064198793       10.000571238468222+0.0024059794189507508i
-0.31236323458562987      0.39042183555636684      10.000571238468014+0.002405977751331612i
0.04435586120315895       -0.3977273112142072      10.000571238468012+0.0024059920129450526i
0.11510879657010833       -0.48656958901289904     10.000571238467717+0.0024059936600633004i
0.1354529768057275        -0.39535681603317097     10.000571238467979+0.0024059919463601267i
0.21907547278280007       -0.4494507061124643      10.00057123846776+0.002405992907678141i
-0.21907547278280007      0.4494507061124643       10.000571238467938+0.00240597659448883i
-0.2100665838276573       0.34300522286102625      10.000571238468181+0.002405978552906939i
0.31236323458562987       -0.39042183555636684     10.00057123846784+0.0024059917507862016i
0.19838496270507153       -0.34654786025781825     10.000571238468067+0.0024059910197090344i
0.3904225949460233        -0.31236228542449446     10.000571238467927+0.002405990279847453i
0.2797270408789609        -0.2903000959284411      10.000571238468112+0.002405989954363114i
-0.1371983811102289       0.40058646581533597      10.000571238468083+0.0024059774594578543i
-0.11510879657010833      0.48656958901289904      10.00057123846788+0.0024059758417232227i
-0.04332627862696256      0.401440017246306        10.000571238468085+0.002405977419796487i
0                         0.5                      10.000571238467812+0.0024059755644998612i
0.050623114512619326      0.4167252902148565       10.000571238468023+0.0024059771358662433i
0.11511264380582166       0.4865686788481499       10.000571238467797+0.0024059758424380875i
0.1335452691375571        0.3749655290343442       10.000571238468085+0.002405977932765721i
0.2190743997688595        0.4494512291293839       10.000571238467819+0.002405976594655039i
0.3436019409642757        -0.22158666252552534     10.000571238468142+0.0024059886872725787i
0.4494512291293839        -0.2190743997688595      10.000571238467998+0.0024059885857554033i
0.3944537675017814        -0.15080897161828727     10.000571238468162+0.002405987409087022i
0.4865686788481499        -0.11511264380582166     10.000571238468044+0.0024059867506318615i
0.5                       0                        10.00057123846807+0.0024059847514511503i
0.40158245080937577       -0.06452969749996143     10.000571238468204+0.0024059858864413585i
0.4110437767117595        0.02949550221492875      10.000571238468211+0.0024059842330065207i
0.48656958901289904       0.11510879657010833      10.000571238468073+0.002405982751307066i
0.4494507061124643        0.21907547278280007      10.000571238468028+0.0024059809163305117i
0.373626824184524         0.12205154078574453      10.000571238468227+0.002405982594897537i
0.3500744984340781        0.2131225078855333       10.000571238468176+0.0024059809690328685i
0.39042183555636684       0.31236323458562987      10.000571238467968+0.002405979222281888i
0.31236228542449446       0.3904225949460233       10.000571238467893+0.002405977751454954i
0.2768673065383102        0.2781670589214044       10.000571238468156+0.0024059797657866797i
0.2203562420457842        0.3508071650470407       10.000571238468062+0.0024059784152384005i
-7.615953712338844        -4.601942690675706       9.120895185665217+0.0015239650798812134i
-8                        -4.411764705882353       9.135096169597006+0.001524690519422958i
-8                        -5                       9.120402224604524+0.0015239348106398467i
-7.407407407407416        -5                       9.10542328852171+0.0015231525904516265i
-7.561347969226016        -4.114738591824122       9.145638151399822+0.0015252547443686008i
-8                        -3.823529411764707       9.178763953666413+0.0015268643444197305i
-7.1110131850607825       -4.483210155672055       9.098291578983948+0.0015228179289045413i
-6.814814814814824        -5                       9.060059233434384+0.0015207055099607982i
-7.538334380602256        -3.533268384985803       9.202350795227083+0.0015280831866728093i
-8                        -3.2352941176470598      9.25016312028667+0.0015301871076195885i
-7.101256554332198        -3.8368586247248873      9.144772562325242+0.001525400721709702i
-6.679613718806478        -4.093258848328584       9.082559267820514+0.0015222283036036388i
-6.5039258304865175       -4.527845882844359       9.034035984964108+0.0015193559597670263i
-6.22222222222223         -5                       8.983093974575493+0.0015162960007785696i
-7.518351213929124        -2.951338687951001       9.285781703196006+0.0015319173307618568i
-8                        -2.647058823529412       9.347176684182912+0.0015342354350932697i
-7.041400631016076        -3.248562989806928       9.213807014364546+0.001529077813458607i
-6.5353739214392705       -3.5527248344986844      9.123356474447403+0.0015249985373422263i
-6.19044670800977         -4.060882290637522       9.020129106573139+0.0015190680727578969i
-5.923633519913393        -4.526638778291708       8.942820000580154+0.001514069022980186i
-5.629629629629637        -5                       8.872562108367328+0.0015094010217688518i
-7.517323792596018        -2.3576505127247356      9.396384306457245+0.001536363842471272i
-8                        -2.0588235294117663      9.466795346175+0.001538477131281228i
-7.031613759486986        -2.6538684937130625      9.314859176296935+0.0015338949651771867i
-6.540168600599629        -2.9335767222537026      9.220747316193366+0.0015306232814478677i
-6.114745468801729        -3.1744409705443526      9.124454314899548+0.0015265641580710183i
-5.9295815911882315       -3.6100493988667175      9.027754135564168+0.0015206492046861803i
-5.62527145139497         -4.059737327027621       8.916962835474605+0.001513341969056915i
-5.337007567818663        -4.523471308116751       8.816942176386213+0.0015060462821725612i
-5.037037037037043        -5                       8.725963611350393+0.0014992583832034191i
-7.521693935996428        -1.7670321889474576      9.527869202405471+0.0015406970660444394i
-8                        -1.4705882352941193      9.605127261980671+0.0015423345271018277i
-7.036778305880927        -2.065797082690372       9.439765961787202+0.001538947447176312i
-5.613568045012288        -3.133236332616227       9.047044727407512+0.0015242046072048764i
-6.5356600129001405       -2.3662849668516373      9.335423717247954+0.0015364992011656815i
-5.986702464651422        -2.654966692898777       9.207337133886766+0.0015326527325166587i
-5.332276063443718        -3.586373488278233       8.910183791163334+0.0015149737192497034i
-5.0424631565910625       -3.0954335659987784      8.928936220781212+0.0015201169005783688i
-5.038683109377009        -4.051008838551842       8.776246797679475+0.0015046612448994647i
-4.742586950561312        -4.523483892278065       8.651813183351523+0.0014942623490400862i
-4.44444444444445         -5                       8.540657146106204+0.0014848658108545063i
-7.52314283199155         -1.1780058035304526      9.67569100999301+0.0015443257013016195i
-8                        -0.8823529411764723      9.757481709117076+0.0015452650325700108i
-7.04505603435458         -1.4747594260128774      9.585303307293815+0.0015435751756891537i
-6.569063898756392        -1.7740544822554178      9.48148591365461+0.0015425025507420154i
-5.354033557058689        -2.6432237178868077      9.102567222593544+0.0015312494933607623i
-4.761795974742748        -2.563301233513555       8.989651803139738+0.0015308155840158403i
-6.083146585442988        -2.0512048014146336      9.365115562474712+0.001540781418470842i
-5.629228421148632        -2.2205295339633224      9.260164897311926+0.0015392028013775376i
-7.524056777462938        -0.5895633490674755      9.834973272981882+0.0015467387655737923i
-8                        -0.29411764705882604     9.918527420732024+0.0015468455625035433i
-4.744089027098744        -3.568775466608212       8.757242035125772+0.0015065455413750724i
-4.454316392359571        -3.0844689833291326      8.764606365009099+0.0015129720866866603i
-4.446514954557608        -4.0459633981370215      8.594845588878515+0.001491944394550966i
-4.149097837116587        -4.522815027689307       8.446596408697262+0.001477700578638538i
-3.8518518518518565       -5                       8.314676362980054+0.0014650517185291424i
-4.164963630031996        -2.6180695391331654      8.797503014831499+0.0015247496562600363i
-7.047655669944588        -0.8849198795961071      9.745203148936753+0.0015471003499709223i
-4.359240843336131        -2.1567892163301865      9.01361766231073+0.001543350714666009i
-4.723731650162648        -2.1173306943248416      9.119132741282398+0.0015436800893434074i
-6.56987453876291         -1.1793419500122364      9.644340601747944+0.0015476296602885368i
-6.090716624120027        -1.4650741746420346      9.529467876979226+0.0015479141370140011i
-5.121329924507769        -2.0777690934343407      9.214855420447128+0.0015433191623828914i
-5.607691828125245        -1.732076472808329       9.398254420163356+0.001547475931715935i
-7.524911307841354        -0.0014342953633868043   10.000117719706607+0.00154758495322922i
-8                        0.2941176470588207       10.082517942222282+0.0015468439819012168i
-7.049959434131027        -0.2968337858554448      9.913838414066566+0.0015489992449819743i
-7.525813756676057        0.5863384808896258       10.165163484069124+0.0015467410189610043i
-8                        0.8823529411764666       10.243563236134031+0.001545260358494238i
-0.3305535502690257       -1.959365589125215       3.1935222300306525+6.878051164070938E-4i
-0.4351574547526665       -1.9616143061019133      4.095972671174597+8.77035702692758E-4i
-0.35285147599668293      -2.0439598220293105      3.277218029317964+6.930019838143584E-4i
-0.26725456457808844      -2.1000458019271657      2.489617280432046+5.196090238473207E-4i
-0.2517119105533174       -2.0023010977037607      2.1025325293271773+4.4964806474264313E-4i
-0.3526342761847593       -1.8782002666029893      3.7632791483925163+8.221109416423752E-4i
-0.44541256604560403      -1.8472580501241798      4.570054905080764+9.962660445604066E-4i
-4.1527576429753825       -3.5681421305742007      8.559019074066981+0.0014936298053813888i
-0.5358913882591481       -1.9026717404688394      4.895752793484079+0.0010520081281402106i
-3.8598946423891487       -3.093492471568304       8.547430127326338+0.00150083086136445i
-0.573240360640053        -2.01733341497386        4.850411599622707+0.0010232795176868881i
-0.46817867102065824      -2.0933750057707976      4.170330047088222+8.728843590659984E-4i
-3.8531235646179045       -4.045776677640387       8.369391333317713+0.001473755255530928i
-3.555807675743093        -4.5232373119181375      8.199275505954445+0.001455041293746736i
-3.259259259259263        -5                       8.04829861575929+0.001438705870558211i
-3.5643452505686306       -2.6195563839168745      8.56653710592517+0.0015159564298386464i
-3.834384341310406        -2.1580833967703477      8.850556726357683+0.0015438640502210773i
-4.095623402409281        -1.6943754153890576      9.129694518984161+0.0015644815591541216i
-6.574249276645311        -0.5910762078335136      9.81871930079413+0.0015510045171163425i
-4.6774768615281275       -1.7037926350163763      9.257864194982174+0.0015563059879299364i
-6.098136862701782        -0.8810238293457876      9.710295516294742+0.0015533619667517685i
-5.625114803242837        -1.1618675583103615      9.584921332037636+0.0015556121083489304i
-5.1579233360798          -1.4452067547008547      9.433723960951049+0.0015567521285014157i
-7.052232299972133        0.2903728731938647       10.085308084997026+0.0015489976316897579i
-6.578509761651722        -0.00454363150667383     9.999117887571861+0.0015521757562549034i
-7.526563667313428        1.1737037225638527       10.324171112446594+0.0015443364573851641i
-8                        1.4705882352941124       10.395916924506897+0.0015423269562258302i
-7.054510793606602        0.8769952193562891       10.253452218895958+0.0015471054620410814i
-0.3651096267357184       -2.1474702819124802      3.4973409138802+7.259255558151345E-4i
-0.28792365244372753      -2.1871173380500677      3.0511064402677226+6.279161300113457E-4i
-0.15                     -2.05                    0
-0.19666215675905835      -2.1699266683785154      2.27347118199982+4.663027266432786E-4i
-0.26041263385770247      -1.9107524531881006      2.6587708608418015+5.819689835973144E-4i
-0.15                     -1.95                    0
-0.2822846499013766       -1.8353291389210837      3.4681405975902733+7.681446505314993E-4i
-0.5622083561382493       -1.7779940568799397      5.4583121477061445+0.0011909748385460252i
-0.3493982486664218       -1.78507329543134        4.313548658155902+9.565942943527199E-4i
-0.43323659887328625      -1.7500375635411725      4.9897860611880684+0.0011040063368194981i
-3.558891618862483        -3.571748982762978       8.310618314550721+0.0014743445465476444i
-0.6954384035507923       -1.902880876361976       5.631964712789789+0.0011982396531773547i
-1.0392326708324087       -1.509540821253893       7.504509518348179+0.001616054179351269i
-1.1660212626819961       -1.712636611092072       7.245780613805544+0.0015159595272975278i
-0.9321794641646546       -1.6407120903533259      6.987631800441948+0.0015019726523861168i
-1.264827874388144        -1.4190077965661005      7.953685029859393+0.0016845632768275505i
-0.9191234688081293       -1.8342318530045556      6.495635420783803+0.0013713268114980885i
-1.5741330824847208       -1.6541217977755471      7.86091113697485+0.001591161992009914i
-3.264093319536834        -3.098968809693469       8.272724232672841+0.0014813995640986586i
-2.968762756820253        -2.628834506744106       8.264686318992704+0.0014984548102503499i
-0.6996780141741239       -2.075224580888115       5.3666087967266245+0.001117892303296589i
-0.6044136172188922       -2.1687162213435545      4.90420300860814+0.0010133376298970707i
-0.4785157026203608       -2.221434362058373       4.3182926253264+8.878363683594029E-4i
-3.25967443693939         -4.048705769811942       8.097205688903868+0.0014483695596877735i
-2.962197709941916        -4.524639856098502       7.910851839768938+0.0014251179537725152i
-2.6666666666666696       -5                       7.74684266066055+0.0014053045923983955i
-7.527090072223576        1.7602031573160863       10.471425482624902+0.0015407301178965523i
-8                        2.0588235294117583       10.534247703554447+0.001538466990757659i
-7.526875156912624        2.3462909704534267       10.602044598134647+0.00153643720296345i
-8                        2.647058823529404        10.653865030591364+0.0015342231053100304i
-1.2169583685685215       -1.1207393285418048      8.55810029569035+0.0018598486376036132i
-1.5860958573891766       -1.2209224859383505      8.509286026442345+0.0017549348827771167i
-1.1094546499528615       -0.860701425744228       9.124035320839782+0.002047923222347025i
-1.4167944926405478       -0.873257838707733       9.023628456980928+0.0019305842423783099i
-1.2591175847722533       -0.6461798048133401      9.41091142016542+0.0020852918637847134i
-3.2395457750414787       -2.1403579805988393      8.620677492242145+0.0015431481194839146i
-2.6999567207527386       -2.1640241744017414      8.322759512389121+0.0015325289867026434i
-1.8921447177541715       -1.445907776904765       8.38099855820207+0.0016583869920771827i
-2.0181243035668337       -1.7667452048381245      8.132339121860753+0.0015773110709033473i
-1.9938598315222595       -1.1450777771954954      8.783594010755634+0.001728913109342128i
-3.5110330291677783       -1.6679500084385184      8.97073733032431+0.0015763388744570092i
-4.336924218879557        -1.3075974218830604      9.357585168791491+0.0015746220553040312i
-3.8546811202336837       -1.1720398138958568      9.329926417137203+0.0015942319529381446i
-6.101858553571056        -0.2983170998772643      9.90105077521922+0.0015563289452863057i
-4.750551812653031        -1.1280784300178488      9.501313914134938+0.0015701595270962087i
-5.63087881401115         -0.5800951078595223      9.789167895227095+0.0015612555695800107i
-5.165374786421792        -0.8676563386178708      9.65153148814761+0.001566347974736605i
-6.583408768807317        0.5810641717002619       10.17905658404569+0.0015509754180796772i
-6.110943270293366        0.288232967457335        10.09648890483566+0.0015562512059651308i
-7.055822605051362        1.4626322651849966       10.412165693163216+0.0015436234905463096i
-6.587363212452865        1.166585783253571        10.352188051442548+0.0015476202525261421i
-0.35861565356999914      -2.2560109018461887      3.748401706751068+7.663152439107782E-4i
-0.2521049378628343       -2.2621436212091504      3.20083009937589+6.515318673172538E-4i
-0.14929629015855825      -2.2553337704976846      2.6838848275065765+5.439557033807377E-4i
-0.05078330470032263      -2.05                    0
-0.09277295695513874      -2.153493111855071       1.5105929366284787+3.074674013283574E-4i
8.4549342286298E-6        -2.138659321550393       1.1770516407708271+2.3877698170868007E-4i
-0.19798606410239344      -1.8403822521003192      2.7214053765316444+6.080294339460703E-4i
-0.05078330470032379      -1.9499999999999997      0
-0.09833543414091084      -1.860498022683317       1.7679725764411878+3.990392940750209E-4i
-0.7101515456030574       -1.6678967400848164      6.385592344810396+0.00139517930164495i
-0.8263926107095261       -1.4792604225452923      7.293050809847327+0.0016081362853015526i
-1.006742142217722        -1.2960871857126741      8.048363315482682+0.0017709859890485717i
-0.9208164011677882       -1.0555439665134532      8.732104928613213+0.0019805703328652836i
-0.2551379011322423       -1.7638539674888387      3.90778586150971+8.7663924056395E-4i
-0.4840619593437185       -1.6264452391114275      5.877639905718297+0.0013147360219425016i
-0.34517395664912526      -1.6870558294116347      4.975756215574891+0.0011178018366104238i
-2.9639227034771576       -3.576317074084635       8.00550871992708+0.001445955729409134i
-0.8677756912327858       -2.0448137482337025      5.9958335107915195+0.0012431100160550407i
-1.1202396707684847       -2.01846373830974        6.677121429249978+0.001367343371859807i
-1.3808943996698213       -1.9463353720160699      7.237972638453066+0.0014637149449163664i
-2.4122074973444945       -1.8265207833513917      8.361850423506173+0.0015724011564698301i
-2.1722334251830304       -2.1834583064957047      7.931969290991909+0.0015062134836019171i
-1.7109447910791769       -2.067269648286285       7.559475365807773+0.0014842489077305265i
-2.375800036095334        -2.6437720946543246      7.862494309475795+0.001463971800697385i
-2.6688354389265054       -3.106327597199387       7.924203117592968+0.0014497189201314884i
-0.7719886211702347       -2.225186064637391       5.549150123193986+0.001134361374869347i
-0.6199651493021068       -2.3196638580547955      5.032648893952627+0.0010226101373895643i
-0.4642160381117315       -2.355332045651952       4.482585812547253+9.080696536405776E-4i
-2.664277381306553        -4.051746795148873       7.777225847363872+0.001413968618179669i
-2.3680536226448563       -4.527521356146179       7.588975292566033+0.001387623673480346i
-2.074074074074076        -5                       7.425048333890113+0.0013658581959289306i
-7.524314107750701        2.927023301573244        10.710999791899651+0.0015320834443192848i
-8                        3.235294117647051        10.75087772414566+0.001530172939351814i
-7.520053719583547        3.49127265884537         10.794149498996473+0.0015282946850821222i
-8                        3.8235294117646963       10.822278129186797+0.0015268484571453608i
-7.055734630128761        2.0468456720378985       10.55591329148217+0.001539074697542576i
-7.058341574055326        2.626171201308585        10.679130773211513+0.0015341337778540557i
-1.7440873128593524       -0.8883308834389557      9.026248631414589+0.0018390096618396614i
-1.5524853264947323       -0.6348159056958036      9.347114484709573+0.001966756203069259i
-1.3632081176855326       -0.42383820593961485     9.637791516109731+0.0021043176824403864i
-1.2164810310246694       -0.2733170880253931      9.833037956303661+0.00222065142654119i
-2.8581925306220897       -1.6047653587391617      8.757977511801599+0.0015972371009731932i
-2.3471673930431267       -1.4231670713624245      8.660015308594692+0.0016421228547272531i
-2.08779378753066         -0.8463786625739362      9.144633892016282+0.001779575503231188i
-2.30586992055707         -1.0457597829545406      8.999834830401646+0.0017119180157393245i
-3.3195436908569493       -1.1690751762345304      9.20659418262913+0.001617852057306595i
-3.551936095847806        -0.8226876743737263      9.474840589068327+0.0016245325713951143i
-4.308672381814284        -0.8409096851494787      9.574405888533533+0.0015890885881193193i
-3.8852526534452556       -0.7009481040921919      9.595470087381534+0.0016106713638693745i
-5.634558781014161        0.003566999237493036     10.001833768989924+0.001563210892743172i
-4.70039798950269         -0.559452347297241       9.744466575255329+0.0015815886152793308i
-5.160478434141429        -0.27472479273208733     9.888367681207939+0.0015718999166316648i
-6.120164384712681        0.8694976449183558       10.285934218675623+0.0015532321979668977i
-5.647984371095171        0.5790237291505757       10.210722342353007+0.001560999949942821i
-6.586587003945371        1.7501177278659974       10.512107003577254+0.0015426671196110892i
-6.126311738550127        1.4589798230430313       10.466823324409383+0.0015477451804430259i
-0.3281142587956908       -2.3648838106620014      3.973786182671734+8.027184305986875E-4i
-0.21754956660966113      -2.356893526043739       3.5434743533620927+7.142413133039016E-4i
0.05078330470032379       -2.05                    0
-0.09518483852984065      -2.3497659537909326      3.1921225485883578+6.416973579252461E-4i
-0.04150443935508732      -2.2397804832673054      2.28028912287602+4.607832254809072E-4i
0.09982998685497028       -2.142928812066141       1.4093342002482634+2.8722798567410677E-4i
0.04717855415788655       -2.208837520699757       1.9946912126590022+4.0377786734255544E-4i
-0.1439985611230794       -1.7671003077808385      3.294302229482988+7.461548043237312E-4i
0.05078330470032263       -1.95                    0