% Model:              VLR_3_01V03.mph
% Version:            COMSOL 5.5.0.292
% Date:               Jun 30 2020, 18:37
% Dimension:          2
% Nodes:              1512
% Expressions:        1
% Description:        Electric potential
% Length unit:        cm
% x                       y                        V2 (V)
-0.2                      0                        9.999186219767273+5.131036855694145E-7i
-0.24031265690869333      -0.014262896256485007    9.986547502572305+9.52061121692409E-4i
-0.19480050445325514      -0.045307432776061314    9.99902099138522+0.004394284429634552i
-0.1799784452820661       -0.08722246977614395     9.998868053933354+0.008466136503445193i
-0.222939853387187        -0.08951535597541033     9.92034941515704+0.006012978355262446i
-0.19480055158252196      0.04530723014205566      9.999351526794756-0.004394642844697141i
-0.23628653473404057      0.036822147405189576     10.030826655076867-0.0024945967524093275i
-0.15626273723914907      -0.12482770906545015     9.998730522157366+0.012133790396077343i
-0.19694837301350052      -0.13059099058534115     9.89218070668725+0.00907682790898024i
-0.1799795388163249       0.0872202132963627       9.999504477036199-0.008466637213878192i
-0.2213545016748707       0.08500231821613298      10.06955105427402-0.005862963418399801i
-0.1654037520831123       -0.1682210614051599      9.861458422807123+0.011745006137125459i
-0.1248260106301913       -0.15626409398883467     9.998615226367239+0.015214861782898279i
-0.1266660894306307       -0.19776043254542663     9.839809334906834+0.013949477797111776i
-0.08722051950937931      -0.1799793904215535      9.998528006710648+0.017550596999889194i
-0.15626441318037387      0.12482561104754661      9.999642017909718-0.012134429796064014i
-0.1975700918224529       0.12858895564630923      10.103207099089103-0.008982667865147162i
-0.08275128358056867      -0.22052655458262596     9.817556819462908+0.01547773600900153i
-0.04530739583334546      -0.194800513045527       9.998473388649545+0.019015899634311786i
-0.16643177159415118      0.16621014293660008      10.133146334631027-0.011674790271768473i
-0.12482824553099213      0.15626230869168145      9.999757310900902-0.015215428207941218i
-0.034168343078647634     -0.23336120473486988     9.804944603994104+0.016345427066574384i
0                         -0.2                     9.998454144490488+0.01953233406591984i
-0.08722323530655218      0.17997807428311324      9.999844497357183-0.017550589296993466i
-0.1288852438857933       0.19757184426206498      10.162067792228449-0.013811958100797566i
-0.04530842701600124      0.19480027320652224      9.999899107181058-0.01901574584482142i
-0.08701964678403902      0.22124688046512922      10.19002891045727-0.015237635707117642i
0                         0.2                      9.999918349376314-0.01953200678000718i
-0.014300668795287947     0.23507938947288748      10.193609958606373-0.016513727125268687i
0.0231008581594535        -0.24462026129132308     9.754574489578163+0.01577542345276631i
0.045307432776061314      -0.19480050445325514     9.998473349667613+0.019016723289598667i
0.08722246977614395       -0.1799784452820661      9.998528002033746+0.017550678885263946i
0.07972260791175484       -0.22450651711745928     9.803446513979331+0.01539954021485704i
0.12603242591321814       -0.19902433403732114     9.836164638968112+0.01395198695876334i
0.12482770906545015       -0.15626273723914907     9.998615218178386+0.015214998222363366i
0.16564930036173228       -0.16707533355789073     9.864315416617197+0.011728972431306257i
0.15626409398883467       -0.1248260106301913      9.998730506356296+0.012134079631894187i
0.19865160157563805       -0.1278701060103224      9.894602517912125+0.008892158904321901i
0.1799793904215535        -0.08722051950937931     9.998868045902974+0.008466291274856416i
0.2215070660192242        -0.08264679655543176     9.931762169461107+0.005733016668495927i
0.194800513045527         -0.04530739583334546     9.999021007620575+0.004394114277497414i
0.04530839156627776       0.1948002814517393       9.999899167644708-0.019016783733350605i
0.03370322221214782       0.23297154036555806      10.191203442289968-0.016382006111379924i
0.08164661403477322       0.2201310913495266       10.177499148894706-0.015551107896843447i
0.08722128626596289       0.17997901883861617      9.999844535936392-0.017551223010150517i
0.12605682309157365       0.19775025129283286      10.157355221697719-0.013990018539039506i
0.12482654379450844       0.1562636680880034       9.999757308987787-0.015215356177204556i
0.16386255916855003       0.16613295436659         10.127549173247873-0.011857699386271743i
0.1562630560905248        0.1248273099175397       9.999642010817103-0.012134256175079483i
0.17997859391757526       0.08722216307483177      9.99950446664283-0.008466386710328252i
0.19682415355768237       0.13007943455284018      10.104894348549218-0.009071252314738801i
0.19480054305546163       0.04530726680453399      9.999351530839213-0.004394612751859635i
0.22144292160950022       0.08763593685253641      10.07331843906009-0.005990876448487738i
0.2                       0                        9.999186291518631-6.56603579137125E-7i
0.2385751434057074        0.013490428009715403     10.010740836781489-9.14661331026143E-4i
0.23521310790768296       -0.03465576469951209     9.970202472526687+0.0023744184242073985i
-0.09731391780489294      -0.023021759304243883    9.999030213953432+0.003583419328552295i
-0.0898901412414413       -0.0438150945176857      9.998889196680489+0.006822484084734016i
-0.07576082964451092      -0.02684888440678808     9.999004184359483+0.00418199515278577i
-0.08316727109084406      -0.008928170447272305    9.999125718997313+0.0013902818022198927i
-0.1                      0                        9.999186302591367-8.517717995534288E-7i
-0.07158468585671059      -0.04577767313619206     9.998875781818017+0.0071317452656893664i
-0.0780843674158894       -0.062472646536387344    9.998762527693172+0.009732779996874497i
-0.08001090557392289      0.009415227304587178     9.999250124336994-0.0014668702390177523i
-0.09731373577189135      0.023022528751605736     9.99934226640847-0.0035831846734928076i
-0.0572098444221828       -0.05779125887453538     9.998794191348521+0.009006990674357023i
-0.06247245590538912      -0.07808451993288563     9.998656422673912+0.01217165080645495i
-0.07903775538947982      0.027727529513241107     9.999374299141348-0.0043190841056386774i
-0.08989024584483046      0.043814879914886674     9.999483307141016-0.00682255700911174i
-0.06856867190241586      0.04174005024989451      9.999469377798887-0.006503594946233455i
-0.07808451993288563      0.06247245590538912      9.99960999135866-0.009733089847242584i
-0.059356846068558955     0.05832608887459728      9.999581958205013-0.009090495602139047i
-0.062472646536387344     0.0780843674158894       9.999716111657168-0.012172174336199935i
-0.04556059457081376      -0.07099212839442245     9.998704527219783+0.011067880517103754i
-0.043814879914886674     -0.08989024584483046     9.998576101923572+0.014018654647677075i
-0.023022528751605736     -0.09731373577189135     9.99852554750722+0.01518154510346459i
-0.028807793426275655     -0.07476133279750481     9.998678859743995+0.011658466286837928i
-0.011041741974707857     -0.08255348451224674     9.998625902474126+0.01287605784004418i
0                         -0.1                     9.998507316677992+0.015601508162211453i
0.008955078750616078      -0.07969284863388615     9.998645327051058+0.012429641054277657i
0.023021759304243883      -0.09731391780489294     9.998525543713457+0.015181635498341053i
0.02689085047535659       -0.07912932225465784     9.998649190137197+0.012340398725473467i
0.0438150945176857        -0.0898901412414413      9.998576097988229+0.014018735836318194i
0.062472646536387344      -0.0780843674158894      9.998656418514827+0.012171725640149381i
0.03974935762122233       -0.0687798882978241      9.998719512914912+0.010723801508408787i
-0.043833355584700855     0.06620296863974261      9.99963550435276-0.01032162607562804i
-0.0438150945176857       0.0898901412414413       9.999796422601943-0.014019019868053838i
-0.02781013063358238      0.0774042255064618       9.999711621792937-0.012071493293666096i
-0.023021759304243883     0.09731391780489294      9.999847024318715-0.015182638674702743i
0                         0.1                      9.999865277726244-0.015602912647844336i
-0.008771284023117597     0.07856526860569406      9.99971955653123-0.012254256700049225i
0.010058257003587444      0.08342293264067518      9.999752536268156-0.013012290348409982i
0.023022528751605736      0.09731373577189135      9.999846944211713-0.015181356940580912i
0.043814879914886674      0.08989024584483046      9.999796410020185-0.0140187891921501i
0.02718407321736742       0.07497207255902334      9.999695101687392-0.011691884818682352i
0.04526737166538476       0.07101410618995349      9.999668149533582-0.011071726506827773i
0.06247245590538912       0.07808451993288563      9.999716101615428-0.012171976120766675i
0.05604370651782325       0.056098343199111805     9.999566855128068-0.008743648540768374i
0.0780843674158894        0.062472646536387344     9.999609996251449-0.009733102968287288i
0.07034806760624257       0.043578658849091276     9.999481837890785-0.006789717267362135i
0.0898901412414413        0.0438150945176857       9.999483327274978-0.0068228192858048155i
0.07808451993288563       -0.06247245590538912     9.998762531791238+0.009732747765914027i
0.05586676763140358       -0.05722451761589651     9.998798026848414+0.008918950238679016i
0.09731391780489294       0.023021759304243883     9.999342307885875-0.0035837363451152646i
0.07444297045927654       0.026340026039710904     9.999364899888208-0.004103318527459557i
0.08222481734558168       0.006713862554193483     9.999231793005592-0.001045835611347029i
0.1                       0                        9.999186224138452+4.5675697599360867E-7i
0.09731373577189135       -0.023022528751605736    9.999030265350779+0.003582709452077386i
0.0802405789013957        -0.0123035544999216      9.999102820049005+0.0019162720476515115i
0.06842195598000522       -0.04282355218557024     9.998895801154324+0.006672030045739197i
0.08989024584483046       -0.043814879914886674    9.998889217256318+0.00682219980688839i
0.07945828958884983       -0.029014241803555187    9.99898950788586+0.004518997713837099i
-7.615954507085908        -4.601943745725873       8.972139896256733+1.8193611844882993E-4i
-8                        -4.411764705882353       8.988590235133518+1.7916428930363573E-4i
-8                        -5                       8.971571748456546+1.8202864223729951E-4i
-7.407407407407416        -5                       8.954229917440912+1.8493992818297074E-4i
-7.5613519429613305       -4.114743867074957       9.000787494950506+1.771249018293861E-4i
-8                        -3.823529411764707       9.039205963733494+1.7060092997482789E-4i
-7.1110131850607825       -4.483210155672055       8.945951170717008+1.863542376634849E-4i
-6.814814814814824        -5                       8.901755558430162+1.9369821974170084E-4i
-7.538357510956277        -3.5332976867899877      9.066520276766802+1.6600452682245546E-4i
-8                        -3.2352941176470598      9.12208712803923+1.5644336725489314E-4i
-7.10125726582732         -3.836860972972144       8.999679546717074+1.774287894262562E-4i
-6.679641224056662        -4.093254424058561       8.927602708998498+1.89588429941166E-4i
-6.50392431983682         -4.527843789527788       8.871618363353393+1.9876716114223357E-4i
-6.22222222222223         -5                       8.81288524141747+2.0835497620283415E-4i
-7.518496118723587        -2.9515122004541974      9.163375650283088+1.4942431402575172E-4i
-8                        -2.647058823529412       9.234925929319584+1.3691944889784454E-4i
-7.041393794036926        -3.2485629326137384      9.079586881722163+1.6403309756439098E-4i
-6.535376210249234        -3.5527076022753312      8.974478154975541+1.8211549501121415E-4i
-6.190689275127745        -4.060855353852341       8.855283439848591+2.018216429335983E-4i
-5.921959967161484        -4.526732096148679       8.765959996951961+2.1615911725051054E-4i
-5.629629629629637        -5                       8.68562939746669+2.2892674389934017E-4i
-7.518356345028603        -2.3588539004933224      9.291887286352889+1.2708679592220935E-4i
-8                        -2.0588235294117663      9.374371369396732+1.1244335861043381E-4i
-7.032279713003348        -2.654214275677598       9.196861281056485+1.440031078295393E-4i
-6.539765029639394        -2.9299465359668613      9.087740260455126+1.6332841507759956E-4i
-6.120364798293256        -3.176021801533737       8.975543825087263+1.8287810697598846E-4i
-7.520642732162843        -1.768291168490324       9.44518946811647+1.0001448733135909E-4i
-8                        -1.4705882352941193      9.535990281474986+8.367762131305486E-5i
-0.24482755674263532      -0.05503617403239949     9.941863504786316+0.003385437645423075i
-0.2902859444984637       -0.0346752260674946      9.946795500865795+0.0015667022211458216i
-5.929598055040769        -3.610039818846264       8.863328219720893+2.0129539932365592E-4i
-5.625082846086421        -4.059206433873252       8.735941523200573+2.217087180415207E-4i
-5.334866422428841        -4.524610726034406       8.620826398766953+2.395092955667954E-4i
-5.037037037037043        -5                       8.517582045833413+2.5527604498909825E-4i
-7.037813392615945        -2.067302648975994       9.342001676335906+1.1870252978982989E-4i
-6.537853597975636        -2.369107435561473       9.21957012104608+1.408951204943733E-4i
-5.613526748735444        -3.133214979963935       8.884093408632411+1.9954450948451088E-4i
-5.987090896799467        -2.6556787932176293      9.069956179992742+1.679055938744308E-4i
-7.522874947768559        -1.178685273108457       9.618240667538567+6.901527949943049E-5i
-8                        -0.8823529411764723      9.71432709159947+5.156608776902831E-5i
-7.5234951345034204       -0.5895293325887531      9.80507686065957+3.5184456324816916E-5i
-8                        -0.29411764705882604     9.90307420820866+1.7318232067540216E-5i
-7.043994596698077        -1.4754846157141415      9.512071972512855+8.847491456287857E-5i
-0.2885643161636315       0.024737702136644328     10.03595774739444-0.0011392419214574798i
-0.35945306358525475      -0.0015045697053784376   9.996268720832498+4.4380096135897324E-5i
-0.2738226094352419       -0.08624641334664457     9.872722391769104+0.004047154688337561i
-0.33473546415532524      -0.07573900520070441     9.85791093795624+0.002477236597512152i
-0.24775536750690588      -0.13368679408177905     9.80935358993136+0.006529187633535903i
-5.333593319419933        -3.584270219043363       8.727381663262625+2.2472209866194226E-4i
-5.039788696650177        -4.048731641056767       8.574320724820529+2.4808341775943036E-4i
-4.742106250919545        -4.523628254384542       8.43226055580463+2.6881156774396646E-4i
-4.44444444444445         -5                       8.30646161468761+2.869276534053553E-4i
-7.524061859831408        -9.506260646167386E-4    9.998901041702931-1.1598697221272535E-7i
-8                        0.2941176470588207       10.095357611736397-1.7665031604575288E-5i
-7.525076714226414        0.5872508682247994       10.192598657857504-3.53933784663101E-5i
-8                        0.8823529411764666       10.284104549108172-5.191290473435023E-5i
-5.044145391472228        -3.09105073169472        8.747055556768055+2.246186494188244E-4i
-6.566787942312745        -1.773636243548667       9.390243205301237+1.1097683123161495E-4i
-6.084035448682757        -2.0518878192884693      9.25329674300314+1.3641057523913614E-4i
-5.353209999417251        -2.6390875498313067      8.94705704894582+1.915495190454507E-4i
-5.630412531389698        -2.218336228777168       9.130451611514694+1.5962359868547675E-4i
-7.04669996069329         -0.8853436342327976      9.699440465574092+5.4630689300883276E-5i
-7.0484801998600615       -0.2968202211519687      9.897442912133604+1.847881268712804E-5i
-6.569148604635087        -1.1796487259286101      9.580688749627944+7.67975804489209E-5i
-0.40508188350002283      -0.058060823136158304    9.87579325005921+0.0013273530597660305i
-0.4504564006521756       0.010282615803571796     10.022045711765854-1.9353113997268106E-4i
-0.4073562333422682       0.07175677474479884      10.152713065091831-0.0016052034313470936i
-0.3344126865444396       0.0732936727691376       10.135578633501753-0.002409233006836976i
-0.2723065851177734       0.08069042984437158      10.11508267118463-0.0038696923638358483i
-0.3067468944482761       -0.13279978411776652     9.756770259479142+0.004582671058599144i
-0.3729328194816328       -0.12644021409081688     9.735237718196514+0.003127227920160225i
-0.4375616668157002       -0.1182595034660168      9.734437779210783+0.002193603601330887i
-0.21407714082178683      -0.1778968824606613      9.750521826404265+0.008895860865891475i
-0.2720426986609584       -0.18589034263538448     9.662560074686139+0.006606756269689343i
-4.749418178534554        -3.5633777088252447      8.552155401597807+2.544797763771546E-4i
-4.457678718942812        -3.08138393950536        8.555042373749258+2.593706960370336E-4i
-4.448024696168004        -4.045284346616853       8.366283510391662+2.808692930367982E-4i
-4.148476208788758        -4.523142812599228       8.19881935831711+3.032740688052919E-4i
-3.8518518518518565       -5                       8.05112936144228+3.228203993796649E-4i
-7.525434843109821        1.174477871979408        10.378850228869505-6.911933019950512E-5i
-8                        1.4705882352941124       10.462440891396044-8.40244550877934E-5i
-7.049941620398979        0.291250483532136        10.099071123625935-1.8473862752666517E-5i
-7.052758162443923        0.876675819610382        10.295962504201889-5.4421966648210295E-5i
-4.760211600420913        -2.550727980234716       8.814650753242994+2.1864768254685062E-4i
-6.09068240349043         -1.4668249300958645      9.444609076278+1.0257462435642337E-4i
-5.611472371188689        -1.7360195436502694      9.289109295492688+1.3241699950141013E-4i
-5.131572410915187        -2.074971743630432       9.07676303052335+1.726235153182122E-4i
-4.723518155371189        -2.1148163956973187      8.959416005188764+1.9701232769691855E-4i
-6.57250442480762         -0.5920817115506403      9.785074728021689+3.940618641565871E-5i
-6.5751432487009165       -0.005022296197676529    9.997388452963959+1.6504278844027936E-7i
-6.096695784349031        -0.8825097728876092      9.656721461672333+6.384973667167161E-5i
-0.48587661029844426      0.08243914221403019      10.18862129302306-0.0012880201218444804i
-0.49987853322602         -0.06229180563034596     9.855332645956738+9.299548983766338E-4i
-0.5450762502772805       0.029540849962517917     10.06859700053738-3.738488907615105E-4i
-4.169279599486121        -2.620403905555908       8.584149371276723+2.6306678749706057E-4i
-0.4412494298323515       0.1343927649847939       10.302518224671362-0.002405379646820116i
-0.37268920914094383      0.13163702240263814      10.274783945303211-0.0032315207292374112i
-0.30606673453073546      0.1330318048213739       10.241629631837085-0.004606177669130337i
-0.24710699153740298      0.13198040579049508      10.184708022846316-0.006510678169721183i
-0.33923812799345576      -0.18916718797021317     9.604667206648335+0.004811573460347937i
-0.414240500067661        -0.18467685609053267     9.582689568772496+0.0034210003465233074i
-0.4962748290131984       -0.16254400836656863     9.617689149646155+0.002252670696881061i
-0.17332100006628814      -0.21618489078939468     9.697377326051845+0.010918211346331063i
-0.22898439677039545      -0.23388526692995937     9.574853327592711+0.008428519502159339i
-0.2955204061154839       -0.2484777361189621      9.477582526130115+0.0063987965314928974i
-0.1264080846351218       -0.2460699536193298      9.654178917130425+0.012476605629908655i
-4.156191796408954        -3.5673618182360105      8.322175204711483+2.922386492744599E-4i
-3.8667435458763477       -3.0951272052286596      8.302296627998922+3.0391881898538675E-4i
-3.573700138803041        -2.6190396484235974      8.313185482114962+3.1697001376581794E-4i
-0.4576508824523324       -2.0023767041059797      3.613064439016186+6.650798410184241E-4i
-0.47128688301728133      -2.1017958557924312      3.6812735244845034+6.06278782603542E-4i
-0.36259012521661504      -2.0476963661195096      2.92512188603308+5.235645374207947E-4i
-0.5760229911047343       -2.036864974411963       4.23599511785589+7.205448345372229E-4i
-0.5422034885578865       -1.9408045805778287      4.166141603233133+7.871132994770718E-4i
-0.6612243442384559       -1.9383791318049817      4.711258046194554+8.39386705856626E-4i
-3.854793269432092        -4.0469371262065135      8.109526737662632+3.191928719501775E-4i
-3.5554484510484152       -4.52391634121537        7.920310299392306+3.414372142798682E-4i
-3.259259259259263        -5                       7.753376880112101+3.610449000482154E-4i
-0.3639558033588264       -2.1435593753967046      3.0711151892819863+4.8781869271063446E-4i
-0.26896054470680764      -2.096811308239134       2.1884250912891736+3.6400382901025905E-4i
-0.28744253027958244      -2.183682152761411       2.6931408049154233+4.038689333247036E-4i
-0.1985691031164934       -2.169667381143199       2.0351216861931647+2.982994001122295E-4i
-7.526386518122938        1.7594129013617894       10.550615794596085-9.989106267746777E-5i
-8                        2.0588235294117583       10.624059465328973-1.127902789229907E-4i
-7.5260360532035735       2.343066846439074        10.702494002011504-1.2672028194188272E-4i
-8                        2.647058823529404        10.76350435953893-1.3726639770916138E-4i
-7.0544810519162215       1.4606717709833195       10.481361155406844-8.791364753904052E-5i
-6.579291949282602        0.5803498282098052       10.208963104718118-3.893690929994071E-5i
-6.5833875191965046       1.1646828104934963       10.411867740999606-7.605365385276833E-5i
-4.365676077788989        -2.15308034259902        8.835108890985317+2.232398322436876E-4i
-5.622182660221671        -1.167411938370004       9.506045892769174+9.32588574433426E-5i
-5.150398656384098        -1.4570831002901585      9.322210324813575+1.2984974572967725E-4i
-4.6782423901660675       -1.708282629297274       9.116390589617067+1.717078172009949E-4i
-6.099857226839624        -0.300396878367676       9.881096634774899+2.2015256347762254E-5i
-6.105224050388962        0.28392367157919124      10.110768983516584-2.1125566480878246E-5i
-5.625965798805144        -0.5882363295899434      9.745528523097844+4.838083822899658E-5i
-0.5926385777827188       -0.13067232746966453     9.686261651539889+0.0013250278095786458i
-0.505809028226765        0.14822989545706142      10.34732452182592-0.0020155474068662273i
-0.5642740909745381       0.11110433551338908      10.263318373489446-0.001260921181004071i
-0.6104234363472703       -0.02958270625894742     9.92865371799955+2.9567709504102756E-4i
-0.6294837148329602       0.07591236714249422      10.180949646754014-7.030071624472717E-4i
-3.8254903007813374       -2.1584096538132305      8.628437588256302+2.696388828290122E-4i
-3.252273981923325        -2.14400124870147        8.353293697229851+3.350647584069949E-4i
-0.4680311107406585       0.18537339521377183      10.43159330061346-0.0027710011348158013i
-0.4071418107425135       0.19382742779994216      10.43586878239343-0.0036345408798084413i
-0.33844948597278673      0.19369207173799827      10.404450572279067-0.004888134352405282i
-0.2714416500625885       0.18759421956675407      10.339535580837408-0.006648911999162672i
-0.21393927776092908      0.17782443449616306      10.247466956385766-0.008902699156207387i
-0.37397060617265493      -0.2569109461606984      9.413009122764054+0.004755161944661076i
-0.46546495092932355      -0.2547392764888822      9.391652088736228+0.0034145147047608356i
-0.5688720928506897       -0.24376012272387715     9.407152699783099+0.002371769194337948i
-0.4538485062365476       -1.886548141389919       3.7918350779227823+7.9236212634024E-4i
-0.5718223299787489       -1.8333377955725372      4.51838200742472+9.249674453636205E-4i
-0.7283164159703516       -1.7752665018565428      5.242987324364698+0.001013953165802652i
-0.17801987317434245      -0.2740160352617207      9.498231976401255+0.009913088100337045i
-0.2409369989087777       -0.30136265681587304     9.35926514757096+0.007773200039758302i
-0.3181396406998027       -0.3257921442015166      9.243728104718285+0.005984811530917883i
-0.3593795167353781       -1.9472215747982105      2.9939505986350503+6.137308709413918E-4i
-0.25677708292032203      -1.9981466627385043      1.8702151429464962+3.694935223895423E-4i
-0.358659780601799        -1.8493822554540735      3.3190230456058676+7.649415286577797E-4i
-0.07613010141030675      -0.2665115866146771      9.62178254539002+0.013467302592819405i
-0.12162760208841505      -0.3019875337563985      9.445156157714054+0.011011398147920707i
-0.15                     -2.05                    0
-3.561428712421532        -3.5725198876352504      8.037218183201567+3.3660382603076293E-4i
-0.8438439626322175       -1.9401514532709587      5.360900920152145+8.632987429593833E-4i
-1.0001221383120535       -1.7116652128017513      6.117510608561282+0.0010099649016956766i
-2.9566449305232547       -2.62355648444363        7.944448171549909+3.88189702803681E-4i
-2.67275911313355         -2.1564219219048746      7.9654150017526915+4.2631803051037224E-4i
-3.2648018345046834       -3.0976910950731784      7.981848499427365+3.5813077316923866E-4i
-0.7210930348782474       -2.074967337087204       4.827081781526751+7.510694676013436E-4i
-0.47741303346430936      -2.2176780488677337      3.836140722263003+5.645585873706721E-4i
-0.6033950763337261       -2.1621901369545564      4.351400448023657+6.574307589719148E-4i
-3.2591733429370264       -4.049571619358493       7.801837126196145+3.614337844134088E-4i
-2.961314059109044        -4.5252108218856         7.599075316978201+3.8099352981227314E-4i
-2.6666666666666696       -5                       7.420847116669279+3.987126249055155E-4i
-0.3544542450706738       -2.250801115144501       3.314450658110037+4.7219793736776456E-4i
-0.2512729551451109       -2.2575715838835175      2.8431542975759676+3.939284825853864E-4i
-0.09190449680466148      -2.152807384969269       1.3433921926246855+1.8613067917181285E-4i
-0.1472023788797805       -2.2543578260683454      2.3995682075723512+3.2168055524010045E-4i
-0.05078330470032263      -2.05                    0
0.0017149120576101602     -2.138333513862574       1.053871899289768+1.42462589296823E-4i
-7.5207979573527854       2.922199849749422        10.829269172293126-1.4877247967562616E-4i
-8                        3.235294117647051        10.876343154735721-1.5679036317859556E-4i
-7.5191293924151426       3.4903353931285346       10.926547726561084-1.6544418922569254E-4i
-8                        3.8235294117646963       10.959226648708915-1.7094820407177E-4i
-7.0556829783235635       2.0426303006693414       10.64868248542271-1.1766381234255915E-4i
-7.056665404166573        2.6233646882366477       10.79280731751838-1.4281122020797733E-4i
-6.5858891314849055       1.7424748000873875       10.597121975452785-1.0931978840551501E-4i
-6.1169872720817855       0.8613100558474368       10.33247504008974-6.244326199379723E-5i
-6.125903559890085        1.4401999567086061       10.54110716433258-1.0051957552814895E-4i
-4.0812810362526895       -1.6927774692984718      8.954675983899095+2.119014750043381E-4i
-5.1578809471126315       -0.8737979537061789      9.581267218609087+8.159907327459641E-5i
-4.708350108884114        -1.132991699933992       9.394735206910768+1.2091712083820527E-4i
-4.302733969320604        -1.2965366554813884      9.227331717856549+1.5853576193256957E-4i
-5.629017462490609        -0.006558853778940272    9.9963719785028+3.729672552837944E-7i
-5.643418240377117        0.5653709164572015       10.24222751089851-4.6654927377524475E-5i
-5.1532845754776595       -0.2902824190861994      9.858017813255612+2.7754308647449282E-5i
-0.6855847816820532       -0.21006582634281562     9.490674110727475+0.001499459080214514i
-0.7047540939275164       -0.08733839100671792     9.789774353428681+6.368459239433475E-4i
-0.5159748260994765       0.2027845405737585       10.482946354546389-0.002483019142737126i
-0.5594481014151214       0.17328519424262487      10.41430103045892-0.0018929787555842545i
-0.6246854516083253       0.1717513500884555       10.413604578710645-0.0015193263220494946i
-0.7163557743402547       0.03378005864287766      10.080030257138189-2.4160869972119896E-4i
-0.7199502390321925       0.1517046114196564       10.363862203901919-0.001025797812497427i
-3.5208668851404537       -1.6782882980613454      8.752594619696998+2.669635347726418E-4i
-2.9533303943798055       -1.6866071128730584      8.462271506939649+3.517862501848347E-4i
-2.4013634648722113       -1.6954238386633642      8.075635450110356+4.743631123881943E-4i
-0.46964290996828073      0.2587921012609324       10.618113614905122-0.003393980633452111i
-0.1732578089694142       0.21673487952775314      10.302707384572727-0.010915468438504052i
-0.37811523925808554      0.26297586436280973      10.603245938573918-0.004720218837970553i
-0.295256763698527        0.2532131108444558       10.533794915267224-0.006423729194197919i
-0.22787968916426668      0.23629859793679828      10.429534080138682-0.008465866034594273i
-0.05236751906104268      0.24026167094853834      10.239825772250747-0.015467095511480889i