% Model:              VLR_3_01V03.mph
% Version:            COMSOL 5.5.0.292
% Date:               Jun 30 2020, 18:39
% Dimension:          2
% Nodes:              1769
% Expressions:        1
% Description:        Electric potential
% Length unit:        cm
% x                       y                        V2 (V)
-1                        0                        9.999828042581107+8.808070881030726E-6i
-1.1785568929029107       -0.07543550824644407     9.886732835707692+0.010354746551455428i
-0.9740025222279032       -0.22653716404529203     9.997658037721646+0.04647362509191344i
-0.9740027578737906       0.22653615087718337      10.001998976723565-0.04647041285224698i
-1.1712076347001084       0.16638769686322977      10.252129510813136-0.022755918376373627i
-0.8998922262026331       -0.43611234930929116     9.995628412063555+0.09005091426755614i
-1.123155532137247        -0.43357602274859297     9.264374291503929+0.05670023744451889i
-0.8998976938765575       0.4361010669049704       10.00402851763226-0.09004606324056581i
-1.105619949976765        0.4109515955637562       10.631816390670762-0.05662449562315284i
-0.7813136841792069       -0.6241385478516084      9.993769823108158+0.13008750037159705i
-1.0060379048401675       -0.6385487508390923      8.919901121210264+0.08556328026274394i
-0.9885843482991581       0.6321060735183399       10.991246255628598-0.0881562229228392i
-0.7813220565171604       0.6241280669860916       10.00588719398487-0.13008460079873552i
-0.8429412600848346       -0.8312593427210665      8.56382676298962+0.11286822572255666i
-0.624130034641003        -0.781320484730191       9.992174961016621+0.16450169786198082i
-0.8332053093938353       0.82751257771542         11.372949610826344-0.1148316775952506i
-0.6241412301444283       0.7813115414697264       10.007482191433681-0.16450163705461376i
-0.6493978180561822       -0.9888791146535341      8.214134082920033+0.13372485534736359i
-0.43610259797142953      -0.8998969519020331      9.990938488735932+0.19115362468583888i
-0.4361161769620473       0.8998903712075201       10.008718278080053-0.1911490627316158i
-0.6414125727553859       0.9934501193914993       11.79292331306756-0.134468640631596i
-0.4284745990907209       -1.101361435252854       7.94723988229087+0.14833684006482864i
-0.2265369793308362       -0.974002565189466       9.990147438234462+0.20815567996194392i
-0.22654213524659375      0.9740013659938648       10.009509966485002-0.2081614669389494i
-0.43446960686422825      1.1390990374924643       12.447843795905824-0.139787125876248i
-0.17953143077892292      -1.2082067812343738      7.3235928006580755+0.14614489825816943i
0                         -1                       9.989865307847815+0.21420115610567417i
0                         1                        10.009791036307846-0.21418916187127404i
-0.057093591587403326     1.1879139811869943       12.347058450252499-0.1558435704191503i
0.11719267503136331       -1.218488890241019       7.2702138565044425+0.14623849880585693i
0.22653716404529203       -0.9740025222279032      9.99014695712596+0.20816317090930983i
0.2265419580012881        0.9740014072191797       10.009510387793286-0.2081669140147354i
0.1677218412099285        1.1677669796406867       12.208185998256019-0.15718338753743422i
0.3935360962680729        -1.1216037004496298      7.839143156206596+0.14834639462858326i
0.43611234930929116       -0.8998922262026331      9.990938218591287+0.19115753006981517i
0.4361064317544617        0.8998950939872886       10.008719140437634-0.19116224120051883i
0.40832452489250926       1.1101919801770028       12.083556511354816-0.14905149934215275i
0.6280342958770815        -0.9978853984117189      8.221034033433428+0.1361376602541663i
0.6241385478516084        -0.7813136841792069      9.992174935725178+0.164501417316883i
0.6261476935282888        0.9854998654127018       11.666836416542322-0.13820734754637495i
0.6241327214526704        0.7813183384588405       10.007482451226116-0.1645064728027979i
0.8290645960907634        -0.8331929677678676      8.608630408754749+0.11531806224468764i
0.781320484730191         -0.624130034641003       9.993769936207267+0.1300848373878168i
0.8358270610179954        0.8366800668686687       11.440214163286038-0.11391187171630347i
0.7813152595867536        0.6241365757083013       10.005887223384658-0.13008588537436896i
0.8998929693801699        0.43611081580275035      10.00402863754017-0.09004900467396244i
1.0020979981203415        0.6386053776334644       11.066175679858857-0.0861921053337744i
0.9915001532101644        -0.6357151484693505      8.982998326682853+0.0878020012906472i
0.8998969519020331        -0.43610259797142953     9.995628562627886+0.09004741977478613i
0.9740027152373064        0.22653633419466038      10.001998985348372-0.04647112482941712i
1.119139377459986         0.44224831995938985      10.749533178890372-0.057901598848792195i
1.103636182213293         -0.4068154812210456      9.383199360704934+0.05645070405237234i
0.974002565189466         -0.2265369793308362      9.997658162456707+0.04647136756026878i
1                         0                        9.999828952796598-5.833816160004935E-6i
1.1827665186716938        0.07743443630230905      10.117973387002044-0.010531404216224385i
1.1705010931392128        -0.1638462493134085      9.752433316299458+0.022458198642925076i
-0.4201735260211338       -0.044888606967969154    9.999035049132846+0.01510144953026026i
-0.5                      0                        9.999828945999127-4.980028830829819E-6i
-0.48656958901289904      -0.11510879657010833     9.997798973084917+0.03862684305513288i
-0.39704723038244266      0.046443010239911625     10.000650168964803-0.015635861411515097i
-0.4865686788481499       0.11511264380582166      10.001857431814114-0.03861664508115792i
-0.3999496723586556       0.14159802793093873      10.002333524727373-0.04767434509660838i
-0.4494512291293839       0.2190743997688595       10.003698339760607-0.07365257189731783i
-0.4494507061124643       -0.21907547278280007     9.995958368962146+0.07365899358192207i
-0.37706840713104045      -0.13426425243931556     9.997451630372352+0.045237940631197134i
-0.36097876329558465      -0.22613436237435341     9.995821513905755+0.0762636566034996i
-0.39042183555636684      -0.31236323458562987     9.994294697027794+0.10532234549812158i
-0.3387197543746866       0.2093073439167747       10.003539478280581-0.07062701943530081i
-0.3904225949460233       0.31236228542449446      10.005362219411719-0.1053191766836881i
-0.289999098667745        0.2977345064198793       10.005117325909012-0.10065672419644445i
-0.31236323458562987      0.39042183555636684      10.006766887935987-0.1320487038074767i
-0.31236228542449446      -0.3904225949460233      9.99289024673091+0.13204860942911795i
-0.2860681397120547       -0.27916548126148544     9.994869911280842+0.0943737896579374i
-0.22658379255565483      -0.35462530356847166     9.993517266928938+0.12011503163596719i
-0.2190743997688595       -0.4494512291293839      9.991818759738063+0.15243248173680538i
-0.21907547278280007      0.4494507061124643       10.007838298298521-0.15243195827199596i
-0.2100665838276573       0.34300522286102625      10.005934266769332-0.1162016102697387i
-0.11511264380582166      -0.4865686788481499      9.99114007571134+0.16533847859320222i
-0.13567531472421782      -0.37295891806508197     9.993180500963073+0.1265201353268817i
-0.1371983811102289       0.40058646581533597      10.006971165090519-0.13593117852084946i
-0.11510879657010833      0.48656958901289904      10.008517606239877-0.16534687276695262i
-0.050654423850324495     -0.4126367876943561      9.992465163037036+0.14013053919772062i
0                         -0.5                     9.990894405616135+0.17001375769362048i
-0.04332627862696256      0.401440017246306        10.006991681461253-0.13631859697971171i
0                         0.5                      10.00876362564558-0.17002662936469157i
0.04435586120315895       -0.3977273112142072      9.99273224919993+0.13504811453241647i
0.11510879657010833       -0.48656958901289904     9.99114007358277+0.1653386392156433i
0.050623114512619326      0.4167252902148565       10.007265390899752-0.14152769269869975i
0.11511264380582166       0.4865686788481499       10.008516648420526-0.1653335010699148i
0.1335452691375571        0.3749655290343442       10.006512707879155-0.12720705381291572i
0.2190743997688595        0.4494512291293839       10.007838228114991-0.1524309866200956i
0.1354529768057275        -0.39535681603317097     9.992779552768356+0.1341500859796424i
0.21907547278280007       -0.4494507061124643      9.991818783033844+0.15243200237051435i
0.2203562420457842        0.3508071650470407       10.006072428976164-0.11883165473063392i
0.31236228542449446       0.3904225949460233       10.006766893790902-0.13204893513061822i
0.31236323458562987       -0.39042183555636684     9.992890288754234+0.1320476587715617i
0.19838496270507153       -0.34654786025781825     9.99365840624027+0.117427754839063i
0.2768673065383102        0.2781670589214044       10.00477056650904-0.0940565837506569i
0.39042183555636684       0.31236323458562987      10.005362424271263-0.10532219019162929i
0.3500744984340781        0.2131225078855333       10.003606038496919-0.07189378502793535i
0.4494507061124643        0.21907547278280007      10.003698736596416-0.07365847366711774i
0.48656958901289904       0.11510879657010833      10.001858080840043-0.03862562798047887i
0.373626824184524         0.12205154078574453      10.001989497956307-0.04112659330214231i
0.3904225949460233        -0.31236228542449446     9.994294850325344+0.10531987618272594i
0.2797270408789609        -0.2903000959284411      9.994670938795958+0.0981605354660187i
0.3436019409642757        -0.22158666252552534     9.995900233719697+0.07476520207285453i
0.4494512291293839        -0.2190743997688595      9.995958728232376+0.07365355309675325i
0.4110437767117595        0.02949550221492875      10.000350121342933-0.009925725250205058i
0.5                       0                        9.999828150275118+5.669897707908903E-6i
0.3944537675017814        -0.15080897161828727     9.99716011363634+0.05078627446545777i
0.4865686788481499        -0.11511264380582166     9.997799718469086+0.03861658451298217i
0.40158245080937577       -0.06452969749996143     9.99868719043346+0.021721890453230596i
-7.616022971167956        -4.601836978431554       7.379813548740226+0.0011538477970692465i
-8                        -4.411764705882353       7.420738140533554+0.0011400697244892343i
-8                        -5                       7.378407133863615+0.0011542327177118193i
-7.407407407407416        -5                       7.33532902317567+0.0011684391995576728i
-7.561694263371574        -4.114210030603361       7.451126590605155+0.0011302785206668414i
-8                        -3.823529411764707       7.546973038728132+0.001096599840800344i
-7.538905553585199        -3.5346849537630654      7.614480615391417+0.0010740702023599527i
-8                        -3.2352941176470598      7.754684482194821+0.0010212352908122726i
-7.1110131850607825       -4.483210155672055       7.314574928487751+0.0011759515353933477i
-6.814814814814824        -5                       7.20537373388287+0.0012099118484614059i
-7.522128128874506        -2.9508656822490567      7.8586150273095265+9.844994261168673E-4i
-8                        -2.647058823529412       8.039276941097949+9.107384355179663E-4i
-2.148597629396302        -1.801344884923737       2.5384798361674994+0.00520878307589256i
-2.111881671632736        -1.7128365508302896      2.8585985660087885+0.006805463962405184i
-2.2398247131987112       -1.7212403199443325      3.3390827157619647+0.006357633041305121i
-7.101758354462945        -3.8332104880823823      7.448492561821348+0.0011344475344068382i
-7.047852574802162        -3.250999992231831       7.646102350529335+0.0010699237118985232i
-2.224513819918016        -1.8549965494895633      2.710371393016622+0.004611506580191845i
-2.3456910297756375       -1.800711690577835       3.478550564979645+0.005307670189758703i
-2.048882519167909        -1.8193416128892514      1.8894490148783152+0.00461125804578122i
-2.1179047576646823       -1.8973411761022634      1.847681108685182+0.003478467789658896i
-2.1918226977267157       -1.9498302246650052      2.189415904196316+0.0033692683694342765i
-6.678589572469782        -4.093891724092163       7.267311712825984+0.0011956913662364667i
-6.503582986825411        -4.527553342640779       7.130333643964753+0.0012348722956882013i
-6.22222222222223         -5                       6.986673232691007+0.001275013980533819i
-2.3903149219406887       -1.6425834517867257      4.187463406371417+0.00669863783471652i
-2.2838213513424064       -1.58742154270243        4.069598723403439+0.007831267306809206i
-7.0338785248498406       -2.6538037130963983      7.940316631056299+9.638688207357296E-4i
-6.5402440731559475       -2.9334171814836028      7.659527884780071+0.0010850407968962526i
-7.519126657534923        -2.3577240648106748      8.183555487360783+8.554642588610935E-4i
-8                        -2.0588235294117663      8.393407871206906+7.628075180932089E-4i
-2.174903830731995        -1.601151373440903       3.670412302170335+0.008363926523575772i
-1.9972836382512393       -1.7195190028048992      2.387955220572572+0.007048772895264837i
-2.0630333476902067       -1.6101344126507666      3.2839245506316463+0.009037910511114631i
-6.525554248525422        -3.5599420491446647      7.375144250057169+0.0011713447216914975i
-2.470143855179597        -1.741082959692135       4.129581561947988+0.005607222625916288i
-6.112674577952182        -3.172892340956658       7.3748898695980545+0.0011982521367573196i
-2.467037004751915        -1.870615467477262       3.771206368560818+0.004676852060766952i
-2.3039130042408456       -1.9578334449782784      2.843035290872027+0.003835143536639833i
-2.2128215040017474       -2.0393220371323992      2.171939679138213+0.002798770858958287i
-1.9378548584944228       -1.8309073367206095      1.3048694256644673+0.004094405751709578i
-2                        -1.95                    0
-2.1068016311836324       -1.9973323369036466      1.3880659692713684+0.0021067405994649887i
-2.1206778463207994       -2.0975606169679826      1.5275171703453603+0.0018111634134411485i
-6.192605493147012        -4.063698172546164       7.087511043436327+0.0012570411710706717i
-5.925449900475405        -4.526926466460383       6.872438644710953+0.0013106184823624461i
-5.629629629629637        -5                       6.67690680420544+0.0013565778489112153i
-2.2440296757516838       -1.4760996730035183      4.44440806623273+0.009428371641467913i
-2.370033615088954        -1.496032895336672       4.677214319843196+0.008136739185673966i
-2.5597056939311402       -1.6125819327135082      4.7820534690692895+0.006155572340801028i
-2.480910713960567        -1.5154398746491236      4.887167438921784+0.007206253377797446i
-5.9878574950905925       -2.6507361875972792      7.608930882463456+0.001148438265963736i
-6.536260480124803        -2.3643052621693843      7.994075158093694+9.681427314360852E-4i
-7.0376592346066875       -2.065510095633842       8.308510989641944+8.160438303491004E-4i
-7.520537106270423        -1.7674239892315942      8.57387734288889+6.875475948408565E-4i
-8                        -1.4705882352941193      8.8065200015294+5.779705144338328E-4i
-1.8169286616812501       -1.8296989959639878      1.070471001939126+0.004409712606741229i
-1.8807065547985977       -1.711325987575937       2.1323658912126393+0.007953135099433383i
-2.120301153032409        -1.4940560291790768      4.059659858183946+0.010486884598520986i
-1.9498021072568796       -1.6046194799823257      3.0238504306028884+0.010212784508301655i
-2.017461297677229        -1.5192515633191235      3.6888996783645736+0.011278211051289233i
-5.9234767037782685       -3.603814954565786       7.100018584971657+0.0012753954226364247i
-2.594023290102852        -1.77214511448472        4.443586355922299+0.005101234736293471i
-2.7205825249602023       -1.6361660446518302      5.130070687755165+0.00536530613717258i
-5.624349146492755        -3.123817445641354       7.150197396722036+0.001305953187928038i
-2.6087848616840312       -1.9262324419866677      4.152884917651849+0.004265517239654962i
-2.459943263293657        -2.017193114621444       3.4538399112132425+0.003774838575296889i
-2.2206840677063373       -2.1436528095843372      2.198175160750161+0.002377819917034739i
-2.138081992831395        -2.1844913776683956      1.7813771662581126+0.0018141068621802662i
-2.3348633615244916       -2.08912977235267        2.809383192825067+0.0031128893840742283i
-1.8888416738200915       -1.9499999999999997      0
-2                        -2.05                    0
-2.046587336893352        -2.1707654348918326      1.2463154559043472+0.0012455448738308433i
-1.7577197014044759       -1.95                    0
-1.6866349074047924       -1.824806198408246       1.0012461374126873+0.0052711485827728576i
-5.623909429784752        -4.059347183324516       6.791000788696109+0.0013495927939123594i
-5.335895001611226        -4.527762935075681       6.5184793034761865+0.0014004689994501103i
-5.037037037037043        -5                       6.2748609523049685+0.0014427701615318828i
-2.186926519513567        -1.350828593368183       4.885534831009481+0.011473153582499257i
-2.3369862986069148       -1.3161899386396168      5.3132840573478815+0.00986497397703942i
-2.4761083819023653       -1.3926775627159727      5.302701281547306+0.00800921834582839i
-2.6415822310509904       -1.4388857309384993      5.500623798329072+0.0065849458315797044i
-2.8282673064625206       -1.495256957826467       5.726564960091028+0.005387204688856591i
-5.3549817784645235       -2.647703698999753       7.272281714496373+0.0013410823334942161i
-5.628966495399709        -2.2233731881933707      7.738873885532838+0.0011661842772418775i
-6.07858398640456         -2.047912878638054       8.068627337344779+9.82400421241472E-4i
-7.5228517419784815       -1.1779407935932462      9.017513086283726+4.828998163988496E-4i
-8                        -0.8823529411764723      9.264760232368612+3.612122931183457E-4i
-6.565061804721928        -1.7708371762463315      8.426815952034838+7.904783246328574E-4i
-7.043585003502434        -1.4739572166459152      8.743042537747234+6.235553023112562E-4i
-1.756485039013041        -1.699534195088866       2.0216569886523725+0.009504354415501374i
-1.8333659271905955       -1.5783994919330362      2.9765475916406348+0.01239516870486816i
-2.0380861649471322       -1.4027487555945277      4.361523159157358+0.01302887706239181i
-1.9225538844041026       -1.4750079309789812      3.7637352945395306+0.013582127689821243i
-1.5499800882081727       -1.8242386308411653      0.9556051523067931+0.006267838372400042i
-1.6223404525771048       -1.6938334879547319      1.9510980497210795+0.011457483111482659i
-1.408799613225151        -1.825189006990768       0.9315401145737671+0.007443979801976319i
-1.4885150434944854       -1.7015962083483622      1.8469178677133584+0.013216925317288105i
-2.072355117733146        -1.2582342958908594      5.133879562382734+0.014329939903563144i
-5.330847125273208        -3.582497597657168       6.756188081154293+0.0014003447668056975i
-2.7634759947258294       -1.8133142504450084      4.831288112833228+0.004518635466566858i
-2.9364406334878814       -1.68481228150278        5.508250719364739+0.004469060340290595i
-2.747838275413466        -1.9929686350919846      4.460325316706808+0.0038672680484127973i
-5.0362571983977515       -3.085259894071481       6.777774216375753+0.001478119362328117i
-4.7522344110968975       -2.542025502814745       6.909267890710629+0.0015937796179134977i
-2.211705430402061        -2.250672322207124       2.2322798738619145+0.0020851311337115983i
-2.1024407801288074       -2.2630033671735212      1.7655289767530256+0.0015984559378624584i
-2.6203913418164677       -2.091158069799588       3.9319881176028084+0.0035475693212297338i
-2.4756148351941305       -2.161933459751806       3.349479041920493+0.003143398518454226i
-2.3381423094668166       -2.2144367941045884      2.7728179126625387+0.002635487950116194i
-1.8888416738200915       -2.05                    0
-1.939186036974212        -2.1661924675419035      0.763633927598606+6.857124037440284E-4i
-1.997655477181978        -2.276860043103074       1.3897556976568062+0.0011772438445030473i
-1.6171055386819164       -1.95                    0
-1.4764876657530528       -1.95                    0
-1.3358697928241892       -1.9499999999999997      0
-5.0364171350863876       -4.0513733388402         6.392241488002695+0.0014571847571219715i
-4.740750805286361        -4.525487580230017       6.067755751364178+0.0014896700108190093i
-4.44444444444445         -5                       5.783072651650104+0.0015163108347992593i
-7.522804152476271        -0.5890454687478186      9.498597472105347+2.493054652879337E-4i
-8                        -0.29411764705882604     9.751394928415845+1.225658958240433E-4i
-2.2512006797268564       -1.1276416678277847      5.9438268723233065+0.012086975364692942i
-2.551029050804402        -1.1968393740159513      6.114619305338659+0.008104960372040462i
-2.8308404484640595       -1.2910383139130766      6.275425324161546+0.005803550341261009i
-2.828733244203326        -1.0077356257381433      7.075350221838282+0.005861214256544136i
-3.0368842567951484       -1.4407327824532894      6.238008318361093+0.0045878186480500455i
-3.2252908495845936       -1.7117260098384157      6.008388052671179+0.0036361302308987216i
-4.713816544046338        -2.122041623262717       7.241804526523266+0.001589630272459629i
-4.3581955416471505       -2.1600222264487137      6.891001745866852+0.001847409235992834i
-5.118914156368538        -2.080374058123497       7.569842573410747+0.001348049786458724i
-5.6059309927843275       -1.7373081113328808      8.14068353185362+0.0010281186343973389i
-6.0871007728409925       -1.4656644825317653      8.556251677791662+7.750796512603921E-4i
-7.045673184447102        -0.8839173476775332      9.225249840322604+3.924283504781495E-4i
-6.566959093813705        -1.17881981650696        8.914419597392147+5.649253565436535E-4i
-1.195251919895326        -1.95                    0
-1.2661691998829891       -1.8240793266739486      0.9438048725170683+0.008977678054520289i
-1.0546340469664628       -1.95                    0
-1.125582379834066        -1.8258586986494878      0.9482514340330018+0.010477046714457134i
-1.3357763378359282       -1.7012187288569842      1.844232281991219+0.016106910169013496i
-1.699184272865617        -1.5589570929194934      2.9509450615291946+0.015348326855888288i
-1.791463704805337        -1.4209522650526143      3.915326144206982+0.01748465949556741i
-1.9158348658249158       -1.310371770515641       4.675102093586339+0.016904039570565826i
-1.5461830755388715       -1.5479862167636547      2.9411152808973764+0.019259558424238238i
-1.4097541725465272       -1.5958369118513314      2.594147718225918+0.020532937993715406i
-1.9762733263036494       -1.1007218501090932      5.779055968154793+0.01788119433593219i
-1.4180646037500115       -0.15186259615865344     9.603598045461373+0.012739178098076278i
-1.419753632860351        0.07905736725019337      10.204476385721888-0.006685777591893105i
-4.74067332302724         -3.5713727741512526      6.305779186261405+0.001543184335508739i
-2.985615126898292        -1.9623385150645365      5.1093957646755035+0.0036545531682951986i
-2.806248421598345        -2.1709354912161114      4.384967922686932+0.003280517019971736i
-3.399432829144132        -2.0872853765581594      5.743475606205906+0.002869094859294171i
-4.135679930646257        -2.6298644804888127      6.235289693360769+0.0019223805801986055i
-3.8491218021037286       -2.1791580262748416      6.300219283253223+0.0022982639330161032i
-4.452403486413738        -3.084090966549864       6.270508487792537+0.0016825909641469373i
-2.316532367506495        -2.3379148836681276      2.7164049241369312+0.0022753192807274795i
-2.189089178452555        -2.3600865950916363      2.2659332979828073+0.0018705135064041626i
-2.075142488210708        -2.3710362611863993      1.883479861644897+0.00150673974978174i
-2.6289823115372615       -2.2750829093928155      3.7850010242215153+0.0029597353794692375i
-2.4754951308037194       -2.31503855219612        3.2754935305205+0.0026716850710505227i
-2.3973486305506007       -2.426003143780787       3.0228510946971157+0.0022984544409994827i
-1.7577197014044725       -2.05                    0
-1.819808963706177        -2.166896579102557       0.523323196824914+4.1151837141057676E-4i
-1.688682285515012        -2.1674687162332034      0.4004624636379383+2.8231517167373723E-4i
-1.6171055386818856       -2.05                    0
-1.88417886724541         -2.2818948442800653      1.0784883880007872+8.419955648665804E-4i
-1.9537654890638252       -2.383646489790776       1.545931726773903+0.0011678009088096804i
-1.5490865783038372       -2.1675303118182088      0.32600952234972724+2.105598427395162E-4i
-1.4764876657530244       -2.05                    0
-4.442636139901992        -4.0539507139820605      5.887456865628558+0.0015600227811785959i
-4.146137168013116        -4.529838012418363       5.5269384956358865+0.0015561608710250206i
-3.8518518518518565       -5                       5.211936723428639+0.0015558547060148936i
-7.522880759196325        -5.822480979341405E-4    9.999062565532368-4.142214754490021E-7i
-8                        0.2941176470588207       10.247727068517834-1.2389306445528348E-4i
-7.045855891385254        -0.2953148380328393      9.737289617346832+1.3406309773583995E-4i
-2.1141444352536762       -0.8391545086930003      6.996740175324013+0.01474145636247271i
-1.5751804549922217       -0.29974078724036973     9.082223519350466+0.017981831562509706i
-1.684162769850364        -0.048380021635812266    9.847619550286948+0.0025233100335030623i
-1.8337213519134512       -0.3285804883944376      8.897317223526317+0.012414372754616444i
-2.520673863483769        -0.8318896193570245      7.315407912573972+0.008211754915348311i
-2.911537529310335        -0.6804298439121363      8.084866739336023+0.004407821726487515i
-3.098546601467972        -1.1667794125061088      6.978982586158012+0.004449715627417015i
-3.0829187029762544       -0.9030407343868639      7.623836970380623+0.004204275930974368i
-3.6278931142973176       -1.718157619054904       6.605663869240318+0.0027913175762442777i
-3.368765971881931        -1.3773059944252957      6.860995870389519+0.0034783096750308873i
-4.0976712688579635       -1.7235696725746898      7.138010668690279+0.002093588164474301i
-4.6678647874877495       -1.7162396669103321      7.631733968544145+0.0015329326848407831i
-5.142865056425695        -1.4737802202286887      8.188115564392076+0.0011245294613580227i
-5.614941076073151        -1.1756770744750156      8.69346745531236+7.726877662978501E-4i
-6.0911335707723735       -0.8834325746514796      9.103327876099447+5.019263014231965E-4i
-6.568559554294759        -0.5898865311896354      9.444760384331305+2.9547847888242645E-4i
-1.628428428704098        0.2672649180258723       10.83568314134031-0.014755366981132818i
-1.349312574586833        0.3572165757346898       10.911785249792926-0.03167744570256215i
-0.9842263254054174       -1.8287604714005021      0.9531858281859306+0.011994720488920238i
-0.9140161740375993       -1.95                    0
-1.195735155683276        -1.6922095255464504      1.9376029228579126+0.019855044489796917i
-1.0561406214016595       -1.707193630972005       1.8733823635836881+0.022081432998357308i
-1.2771873783583994       -1.5560619168269958      2.9004773006298694+0.026943288338493326i
-1.6161669434132775       -1.387521944474302       4.007657145126715+0.023308056695567517i
-1.7619268775732235       -1.2152714437164662      5.066825148958621+0.02280000210858019i
-1.4034352650796038       -1.4209208000996378      3.788976849220124+0.029718761304428847i
-1.2148631329567927       -0.26084728874676216     9.511763685155096+0.03152044261788521i
-1.759456753812341        -0.9098755681609653      6.595984740220976+0.02564269399630075i
-1.9564430500842218       -0.5885822655544981      7.936848339098913+0.015939388988383207i
-1.6103303013664367       -0.5863687237790884      8.039560903099895+0.02820308306797015i
-1.3625505965447187       -0.398221748974979       8.946654803093692+0.0336812268127008i
-4.146896549418041        -3.5830279241726832      5.729920743791518+0.0016769341861774913i
-3.064475129779669        -2.324351606881062       4.8432720590925475+0.002844160930881726i
-2.7901883441449153       -2.379713211066684       4.162078695962973+0.0027889397891072334i
-3.4664650576163267       -2.6325968530421995      5.331028748817242+0.0022877057719120878i
-3.8538754100193926       -3.1289798333026906      5.582342738772941+0.001871480197167032i
-2.2874135253632155       -2.4612518946285107      2.6930736053831925+0.002022369002399813i
-2.148359697419643        -2.478722700650597       2.2843647405136864+0.0016873430078840088i
-2.0359044525498096       -2.4647760127409954      1.9398205820652072+0.0014186071321595735i
-2.585473382936736        -2.493523917454935       3.57615888937307+0.002443815897658313i
-2.3954611460938553       -2.553326978297945       3.0603400936660963+0.002110083457604234i
-1.7612371236361886       -2.2863834421821627      0.8624610499590445+6.169134388977858E-4i
-1.6271491870776131       -2.284206175595705       0.6975674791039993+4.605963657840344E-4i
-1.8335857085274705       -2.4111120823085734      1.3364872422758642+9.370279866861398E-4i
-1.932322298316715        -2.5213121979402446      1.7867956797677895+0.001220554644242482i