% Model:              VLR_3_01V03.mph
% Version:            COMSOL 5.5.0.292
% Date:               Jun 30 2020, 18:37
% Dimension:          2
% Nodes:              1230
% Expressions:        1
% Description:        Electric potential
% Length unit:        cm
% x                       y                        V2 (V)
-0.7796584323248269       -0.6262050214624546      9.997682943218782+0.06569788275550498i
-0.8991207243305398       -0.437700723188031       9.998587798447218+0.04462857101773594i
-0.9973802803225136       -0.6433745673233668      9.616450278808108+0.04649297909971497i
-0.9738021402429143       -0.22739699131325278     9.999551816310737+0.022785711093361822i
-1.1153826415373314       -0.44109088546929454     9.752835113855278+0.03079186301658109i
-0.8475081686380049       -0.8256094634697637      9.434269867374981+0.06102912550719251i
-0.6237791782731196       -0.7816006248416845      9.996882241339783+0.08509047932115647i
-1                        0                        10.000571512472643+6.0194724366596516E-6i
-1.191631854940011        -0.07561732325341956     9.962081523224013+0.005276168743260673i
-0.6597037322144141       -0.9851573976498216      9.168036108084989+0.07368199721333667i
-0.4376898420782          -0.8991260212793092      9.99621746668075+0.10196894346447875i
-0.9738007317554538       0.22740302291865597      10.001591453995816-0.022777466906639843i
-1.1821647510407076       0.15559788549239026      10.079821448744312-0.01089061901369088i
-1.1176625225641867       0.3935954806143807       10.206571972595993-0.028123208527756367i
-0.8991198055327082       0.4377026105688942       10.002555597041114-0.04462213940103546i
-0.4389838601788732       -1.1029207191168091      8.83769748521019+0.08322563410142302i
-0.22739672515945517      -0.9738022023936664      9.995749738580221+0.11440194548077982i
-0.7796530336597403       0.6262117430272          10.003460462040232-0.06569258330517935i
-1.0125957330913946       0.6122860523605507       10.354238294187773-0.0444319551467559i
-0.1890465665677828       -1.1986116922041672      8.328731371574348+0.08553344734230758i
0                         -1                       9.99557158326282+0.1192740796421829i
-0.6237818533660353       0.7815984898982559       10.004260924982685-0.08508091964084136i
-0.8767993923110549       0.8055361844888264       10.555410274721993-0.05856587321167322i
0.12253536731820604       -1.2199723200143224      8.174239453611685+0.08451330953766442i
0.2274041180318779        -0.9738004760227548      9.995749614592704+0.1144068679604579i
-0.43771641767720687      0.8991130839309552       10.004925387607486-0.10195371343497438i
-0.5863119807177679       1.0282702258986656       10.928870287301727-0.07757124552576668i
0.3823654202545466        -1.1320972576079538      8.705322218670334+0.08412535663619654i
0.4377125957988251        -0.8991149445310395      9.99621784391843+0.10196289354103798i
-0.2274090882005394       0.9737993153642074       10.00539363195941-0.11439919008017525i
-0.38372795329415005      1.1316973094262868       11.294259820541471-0.08407261803652154i
0.5844101541346147        -1.0299902011993374      9.066592484636734+0.07762958216312743i
0.6237792660306649        -0.7816005548042074      9.996882360777134+0.08508905052209147i
0                         1                        10.00557174394184-0.11926596853500572i
-0.12248231138430803      1.2204657760056967       11.83083987397036-0.084443787819363i
0.7796514362042091        -0.6262137319036641      9.997682832370677+0.06570069654167714i
0.8728386434525084        -0.8122711620118538      9.434457042000629+0.05891035757261171i
1.0027606536630493        -0.6211105093301503      9.644888595320282+0.04542674264803042i
0.899119060832621         -0.43770414031336896     9.99858770703086+0.04463020706374815i
0.22740170280165262       0.9738010400296916       10.00539360656624-0.11439529890116491i
0.18351138976302916       1.206367307804459        11.729589534123042-0.08474577626323622i
1.1060324895182045        -0.40945625031866273     9.78974839382114+0.02958037899283821i
0.9738005383336292        -0.22740385120119241     9.999551793487951+0.02278651389606198i
1.1661025919300827        -0.17462797056013218     9.916071183013601+0.01252941692057962i
1                         0                        10.000571682622665+3.728501950556602E-6i
0.4376936702608554        0.8991241577299441       10.00492583127808-0.10196073153644018i
0.43755910484687977       1.1047446136515204       11.172841025684312-0.08314842714067293i
0.6237817702323996        0.7815985562459375       10.004261019382628-0.08508175073333017i
0.6580117749377661        0.9848995343878677       10.829925853607238-0.07383076851819394i
0.7796600322735768        0.6262030294362725       10.003460336945464-0.06568937305487854i
0.8523563811051078        0.8230835063001561       10.566868650313523-0.06061548063441922i
0.8991214702162085        0.437699190993362        10.002555532300855-0.04462063014717755i
1.0062077320212126        0.6250399678815248       10.366148175686588-0.045297528650354975i
1.2254465268890946        0.11464641979471708      10.06652664535082-0.007510725341834814i
0.9738023339855035        0.22739616163072368      10.001591621449709-0.022779293134224648i
1.1282024253426575        0.39382310488069794      10.214395833474134-0.027650982012819982i
-0.36097876329558465      -0.22613436237435341     9.998610290725958+0.04000031240770154i
-0.4494507061124643       -0.21907547278280007     9.998689387673494+0.03826528720515706i
-0.39042183555636684      -0.31236323458562987     9.997865374084252+0.05516725557296324i
-0.48656958901289904      -0.11510879657010833     9.999588206936567+0.019957094185907895i
-0.37706840713104045      -0.13426425243931556     9.999410349521781+0.023662997384810116i
-0.4201735260211338       -0.044888606967969154    10.000185265811455+0.007862125651344962i
-0.5                      0                        10.00057184760785+1.2164247697331033E-6i
-0.31236228542449446      -0.3904225949460233      9.997156273591214+0.06984365039943848i
-0.2860681397120547       -0.27916548126148544     9.998132026631396+0.049878408070718035i
-0.39704723038244266      0.046443010239911625     10.000972386641095-0.008152714220982335i
-0.4865686788481499       0.11511264380582166      10.001554786819614-0.019945018758383965i
-0.22658379255565483      -0.35462530356847166     9.997453274576335+0.06388568721689226i
-0.2190743997688595       -0.4494512291293839      9.996603729324203+0.08138718596334044i
-0.3999496723586556       0.14159802793093873      10.001793673093719-0.0248735607536072i
-0.4494512291293839       0.2190743997688595       10.002453741842473-0.038254781773479435i
-0.11511264380582166      -0.4865686788481499      9.996247137591139+0.08889484805723506i
-0.13567531472421782      -0.37295891806508197     9.997274841525405+0.06765757970339349i
-0.3387197543746866       0.2093073439167747       10.002390267097027-0.03710365273765295i
-0.3904225949460233       0.31236228542449446      10.003277816668115-0.05515775156947713i
-0.050654423850324495     -0.4126367876943561      9.996910586810532+0.07522410627503592i
0                         -0.5                     9.996116609943709+0.09165867337114098i
-0.289999098667745        0.2977345064198793       10.003173882757697-0.05319720818924882i
-0.31236323458562987      0.39042183555636684      10.003987038672427-0.06983591627009009i
0.04435586120315895       -0.3977273112142072      9.997044539157374+0.07246058246609827i
0.11510879657010833       -0.48656958901289904     9.996247130912568+0.08889520434747696i
0.1354529768057275        -0.39535681603317097     9.997074078696663+0.07179599632423683i
0.21907547278280007       -0.4494507061124643      9.996603714043504+0.08138744247058773i
-0.21907547278280007      0.4494507061124643       10.004539567683214-0.08137926509298334i
-0.2100665838276573       0.34300522286102625      10.003589832364606-0.06183868635513758i
0.31236323458562987       -0.39042183555636684     9.9971562793979+0.06984360375076115i
0.19838496270507153       -0.34654786025781825     9.997519924653638+0.06254983494326623i
0.3904225949460233        -0.31236228542449446     9.99786542185243+0.05516663067520449i
0.2797270408789609        -0.2903000959284411      9.998032801666872+0.051919795015503624i
-0.1371983811102289       0.40058646581533597      10.004115905938036-0.07274916623121945i
-0.11510879657010833      0.48656958901289904      10.00489641149407-0.08889081740609651i
-0.04332627862696256      0.401440017246306        10.004132313837387-0.07314512268133083i
0                         0.5                      10.00502712684324-0.09165717504846298i
0.050623114512619326      0.4167252902148565       10.004269613280012-0.075978134372775i
0.11511264380582166       0.4865686788481499       10.004895939479363-0.08888369295393954i
0.1335452691375571        0.3749655290343442       10.003886655795226-0.06802660331369069i
0.2190743997688595        0.4494512291293839       10.004539459473637-0.0813776081632296i
0.3436019409642757        -0.22158666252552534     9.998646748371177+0.03927705899395739i
0.4494512291293839        -0.2190743997688595      9.998689505716024+0.03826363001186308i
0.3944537675017814        -0.15080897161828727     9.999269237057604+0.026523872406127393i
0.4865686788481499        -0.11511264380582166     9.999588451824776+0.019953971697645498i
0.5                       0                        10.000571388052242+7.751264618430476E-6i
0.40158245080937577       -0.06452969749996143     10.000015040877365+0.011331908236115011i
0.4110437767117595        0.02949550221492875      10.000825714320156-0.005164920739115988i
0.48656958901289904       0.11510879657010833      10.001555024381087-0.01994806486776801i
0.4494507061124643        0.21907547278280007      10.00245384969658-0.03825625981975137i
0.373626824184524         0.12205154078574453      10.001627527401551-0.02150894619335994i
0.3500744984340781        0.2131225078855333       10.002421609357226-0.03773094415862192i
0.39042183555636684       0.31236323458562987      10.003277904686176-0.0551588273601041i
0.31236228542449446       0.3904225949460233       10.003986965853876-0.06983468640486784i
0.2768673065383102        0.2781670589214044       10.003004174213496-0.049736691670040196i
0.2203562420457842        0.3508071650470407       10.003657252821565-0.06321225366638021i
-7.615953712338844        -4.601942690675706       9.120638525918546+0.005976127118240249i
-8                        -4.411764705882353       9.134843423957623+0.005885086097663954i
-8                        -5                       9.12014543410862+0.005979169144261845i
-7.407407407407416        -5                       9.105162386675376+0.006074800787667642i
-7.561347969226016        -4.114738591824122       9.145388286118278+0.005818085655001193i
-8                        -3.823529411764707       9.178523299359187+0.0056038542689716584i
-7.1110131850607825       -4.483210155672055       9.09802868054541+0.00612123593892106i
-6.814814814814824        -5                       9.05978596155489+0.006362545905439932i
-7.538334380602256        -3.533268384985803       9.202116632464218+0.005452861127261302i
-8                        -3.2352941176470598      9.249942452255704+0.005139029830663227i
-7.101256554332198        -3.8368586247248873      9.144522271331544+0.005827956903714972i
-6.679613718806478        -4.093258848328584       9.082291805522525+0.006227353220597698i
-6.5039258304865175       -4.527845882844359       9.033755554953588+0.0065290445762484816i
-6.22222222222223         -5                       8.982799996701262+0.0068442433150545335i
-7.518351213929124        -2.951338687951001       9.285570951664978+0.004908390934096255i
-8                        -2.647058823529412       9.346983570752794+0.004498253116197806i
-7.041400631016076        -3.248562989806928       9.213575641741981+0.0053879020309919i
-6.5353739214392705       -3.5527248344986844      9.123099577491892+0.005981494794743336i
-6.19044670800977         -4.060882290637522       9.019844360845779+0.006629350157713473i
-5.923633519913393        -4.526638778291708       8.942515082836282+0.007098728343987569i
-5.629629629629637        -5                       8.872239056329999+0.007520721741052714i
-7.517323792596018        -2.3576505127247356      9.39620513250424+0.004174087045137876i
-8                        -2.0588235294117663      9.466636766059732+0.0036952796543294844i
-7.031613759486986        -2.6538684937130625      9.314656085666314+0.004730139889579404i
-6.540168600599629        -2.9335767222537026      9.220516790588029+0.0053680222581219275i
-6.114745468801729        -3.1744409705443526      9.124196195398763+0.006009679982672522i
-5.9295815911882315       -3.6100493988667175      9.02747016640822+0.006611074447450433i
-5.62527145139497         -4.059737327027621       8.916650009784108+0.00728254529278878i
-5.337007567818663        -4.523471308116751       8.816604318626203+0.007865184877193778i
-5.037037037037043        -5                       8.725603296739164+0.008387930019680485i
-7.521693935996428        -1.7670321889474576      9.527728254153402+0.0032853009745674095i
-8                        -1.4705882352941193      9.60500925553035+0.0027519594143293456i
-7.036778305880927        -2.065797082690372       9.439598650156528+0.003898153983861185i
-5.613568045012288        -3.133236332616227       9.04676328384062+0.0065518749398052216i
-6.5356600129001405       -2.3662849668516373      9.335225145505932+0.004624834551808198i
-5.986702464651422        -2.654966692898777       9.207100384953806+0.005512350768747786i
-5.332276063443718        -3.586373488278233       8.909866596719938+0.007383771982424425i
-5.0424631565910625       -3.0954335659987784      8.9286190836671+0.0073816227091903506i
-5.038683109377009        -4.051008838551842       8.775896575457187+0.008152615946510107i
-4.742586950561312        -4.523483892278065       8.65143376912939+0.008832397547549239i
-4.44444444444445         -5                       8.5402520301533+0.009430949757221455i
-7.52314283199155         -1.1780058035304526      9.675593738368095+0.002269890003437224i
-8                        -0.8823529411764723      9.757408984180945+0.0016992792960902482i
-7.04505603435458         -1.4747594260128774      9.585178620837231+0.0029071265833772258i
-6.569063898756392        -1.7740544822554178      9.481329466705505+0.003645330710864893i
-5.354033557058689        -2.6432237178868077      9.102296938483077+0.006291607257026177i
-4.761795974742748        -2.563301233513555       8.98934288028052+0.0071891285730993505i
-6.083146585442988        -2.0512048014146336      9.364923264889525+0.00447856523699126i
-5.629228421148632        -2.2205295339633224      9.259939654311003+0.00524419049021358i
-7.524056777462938        -0.5895633490674755      9.83492364589244+0.001162324332593494i
-8                        -0.29411764705882604     9.918502981676985+5.768197263776024E-4i
-4.744089027098744        -3.568775466608212       8.756882367454383+0.008371692487236975i
-4.454316392359571        -3.0844689833291326      8.76424008846823+0.008524092791478565i
-4.446514954557608        -4.0459633981370215      8.594448988610116+0.009231962478170016i
-4.149097837116587        -4.522815027689307       8.44616821647638+0.009968145517229203i
-3.8518518518518565       -5                       8.31422037782235+0.010615818465611769i
-4.164963630031996        -2.6180695391331654      8.797131882014332+0.008634804692473075i
-7.047655669944588        -0.8849198795961071      9.745126158505073+0.0017983455769278553i
-4.359240843336131        -2.1567892163301865      9.013302226018853+0.007338342190927437i
-4.723731650162648        -2.1173306943248416      9.118854981839966+0.006463387201544508i
-6.56987453876291         -1.1793419500122364      9.644232372217699+0.002524370395907432i
-6.090716624120027        -1.4650741746420346      9.529323451569555+0.003365493799411513i
-5.121329924507769        -2.0777690934343407      9.214611238477291+0.0056835912308575084i
-5.607691828125245        -1.732076472808329       9.398067985207872+0.004341615004338223i
-7.524911307841354        -0.0014342953633868043   10.000117818514438+6.422156148360465E-6i
-8                        0.2941176470588207       10.082542822730753-5.696519555232481E-4i
-7.049959434131027        -0.2968337858554448      9.913812346706708+6.146451612264343E-4i
-7.525813756676057        0.5863384808896258       10.165213278874084-0.0011487945816123504i
-8                        0.8823529411764666       10.24363640177226-0.0016921120937851508i
-0.3305535502690257       -1.959365589125215       3.1927206516220292+0.018798897931485037i
-0.4351574547526665       -1.9616143061019133      4.094989046355045+0.02304855260748678i
-0.35285147599668293      -2.0439598220293105      3.2764816668263563+0.01724937990662478i
-0.26725456457808844      -2.1000458019271657      2.489098451547779+0.012147651337727166i
-0.2517119105533174       -2.0023010977037607      2.1020230932019506+0.01194621372163565i
-0.3526342761847593       -1.8782002666029893      3.762256993442215+0.023989091217732347i
-0.44541256604560403      -1.8472580501241798      4.5688412903182885+0.02846198338310552i
-4.1527576429753825       -3.5681421305742007      8.558606297656778+0.009607367683793881i
-0.5358913882591481       -1.9026717404688394      4.894567604129001+0.02775916795781989i
-3.8598946423891487       -3.093492471568304       8.547000683202713+0.009993162402445207i
-0.573240360640053        -2.01733341497386        4.849359990574244+0.024606058477176507i
-0.46817867102065824      -2.0933750057707976      4.169458250724333+0.020401416985869284i
-3.8531235646179045       -4.045776677640387       8.368940466488157+0.010495466418285146i
-3.555807675743093        -4.5232373119181375      8.198793175157961+0.011229436815437227i
-3.259259259259263        -5                       8.047788360705733+0.01188076064449411i
-3.5643452505686306       -2.6195563839168745      8.566088996326085+0.010423724948230772i
-3.834384341310406        -2.1580833967703477      8.850178333559304+0.008799863463627973i
-4.095623402409281        -1.6943754153890576      9.129397864378964+0.006898825313643592i
-6.574249276645311        -0.5910762078335136      9.818663851194854+0.0012975339393534824i
-4.6774768615281275       -1.7037926350163763      9.257622845561867+0.005616028639499288i
-6.098136862701782        -0.8810238293457876      9.7102057038189+0.002096031323950082i
-5.625114803242837        -1.1618675583103615      9.584790619384703+0.0030462416213970713i
-5.1579233360798          -1.4452067547008547      9.433542760669651+0.00421901040303448i
-7.052232299972133        0.2903728731938647       10.085334018180378-5.940728134084136E-4i
-6.578509761651722        -0.00454363150667383     9.99911767840321+1.3606042105328682E-5i
-7.526563667313428        1.1737037225638527       10.324268469991507-0.0022544860027704527i
-8                        1.4705882352941124       10.396035370319444-0.002744794474344796i
-7.054510793606602        0.8769952193562891       10.253528923825812-0.0017742776444146346i
-0.3651096267357184       -2.1474702819124802      3.4966413778645262+0.016368922207055412i
-0.28792365244372753      -2.1871173380500677      3.050526333801038+0.013570418433800377i
-0.15                     -2.05                    0
-0.19666215675905835      -2.1699266683785154      2.273046859326829+0.00992584876897837i
-0.26041263385770247      -1.9107524531881006      2.6580344475772546+0.017293352322798165i
-0.15                     -1.95                    0
-0.2822846499013766       -1.8353291389210837      3.4671166886073843+0.024059962156832707i
-0.5622083561382493       -1.7779940568799397      5.4568807581774585+0.03353814717184383i
-0.3493982486664218       -1.78507329543134        4.3122750870439965+0.029916362170610656i
-0.43323659887328625      -1.7500375635411725      4.988346809643233+0.03378174108914411i
-3.558891618862483        -3.571748982762978       8.310142839013297+0.011066922178123i
-0.6954384035507923       -1.902880876361976       5.630705261398468+0.029454487144538986i
-1.0392326708324087       -1.509540821253893       7.502892356851552+0.037655202010325795i
-1.1660212626819961       -1.712636611092072       7.244447537456339+0.03104197736107716i
-0.9321794641646546       -1.6407120903533259      6.98607442991069+0.03633073710758876i
-1.264827874388144        -1.4190077965661005      7.9522372274762345+0.033620917717370906i
-0.9191234688081293       -1.8342318530045556      6.4943001986792135+0.031165433857404102i
-1.5741330824847208       -1.6541217977755471      7.859820897751633+0.025325317800227003i
-3.264093319536834        -3.098968809693469       8.272218772905767+0.011762023359155695i
-2.968762756820253        -2.628834506744106       8.264141161348164+0.012680584128236472i
-0.6996780141741239       -2.075224580888115       5.365545146101595+0.02486009821772703i
-0.6044136172188922       -2.1687162213435545      4.9032675705852204+0.02186655157234221i
-0.4785157026203608       -2.221434362058373       4.317486032436257+0.018858573951865982i
-3.25967443693939         -4.048705769811942       8.096695109380905+0.011886736156263901i
-2.962197709941916        -4.524639856098502       7.91031334218502+0.012539047829395184i
-2.6666666666666696       -5                       7.746278797237186+0.013131443409738548i
-7.527090072223576        1.7602031573160863       10.471566352002627-0.0032661061731884297i
-8                        2.0588235294117583       10.534406721298248-0.003688118362115965i
-7.526875156912624        2.3462909704534267       10.602223447885159-0.004149235703102162i
-8                        2.647058823529404        10.654058579737113-0.004491095667927375i
-1.2169583685685215       -1.1207393285418048      8.556458575367488+0.03798572478732185i
-1.5860958573891766       -1.2209224859383505      8.508136269291642+0.02661469474445541i
-1.1094546499528615       -0.860701425744228       9.122165766601602+0.043017125047774746i
-1.4167944926405478       -0.873257838707733       9.022340911732494+0.02965585245079899i
-1.2591175847722533       -0.6461798048133401      9.409526960630101+0.03169122264365448i
-3.2395457750414787       -2.1403579805988393      8.620203812592813+0.011011722228506387i
-2.6999567207527386       -2.1640241744017414      8.32216613742794+0.013792528602150146i
-1.8921447177541715       -1.445907776904765       8.3800934949652+0.02098572938743057i
-2.0181243035668337       -1.7667452048381245      8.13151193950378+0.019209462487577825i
-1.9938598315222595       -1.1450777771954954      8.782796060449213+0.018467620489284766i
-3.5110330291677783       -1.6679500084385184      8.970361802637584+0.008727087448909189i
-4.336924218879557        -1.3075974218830604      9.35736367037955+0.0051526733775981055i
-3.8546811202336837       -1.1720398138958568      9.329677223246284+0.0057927339042013705i
-6.101858553571056        -0.2983170998772643      9.90101996729854+7.247255697584802E-4i
-4.750551812653031        -1.1280784300178488      9.501146976042149+0.0038863843281133335i
-5.63087881401115         -0.5800951078595223      9.78910075782848+0.0015687790134321807i
-5.165374786421792        -0.8676563386178708      9.651417644124324+0.0026535774847723163i
-6.583408768807317        0.5810641717002619       10.179111465195815-0.0012668478809491311i
-6.110943270293366        0.288232967457335        10.096519054458723-6.918942700448288E-4i
-7.055822605051362        1.4626322651849966       10.412289742297203-0.0028749190733089215i
-6.587363212452865        1.166585783253571        10.352295319836253-0.002484597047117659i
-0.35861565356999914      -2.2560109018461887      3.7477219117529823+0.015894227623138094i
-0.2521049378628343       -2.2621436212091504      3.2002636348159412+0.013243825328607623i
-0.14929629015855825      -2.2553337704976846      2.6834223658381657+0.010810812922239189i
-0.05078330470032263      -2.05                    0
-0.09277295695513874      -2.153493111855071       1.510324655406807+0.006273365165113571i
8.4549342286298E-6        -2.138659321550393       1.1768472978889262+0.004777351438085019i
-0.19798606410239344      -1.8403822521003192      2.720557176570978+0.019950490789165002i
-0.05078330470032379      -1.9499999999999997      0
-0.09833543414091084      -1.860498022683317       1.7673878719116425+0.013766417719077566i
-0.7101515456030574       -1.6678967400848164      6.383956785758835+0.038259835935863386i
-0.8263926107095261       -1.4792604225452923      7.291172538634554+0.043843168410626014i
-1.006742142217722        -1.2960871857126741      8.046484345807434+0.04367455195739566i
-0.9208164011677882       -1.0555439665134532      8.72982095349122+0.052915056130459215i
-0.2551379011322423       -1.7638539674888387      3.906545941922484+0.029164351055543658i
-0.4840619593437185       -1.6264452391114275      5.875858617860366+0.04180776897813398i
-0.34517395664912526      -1.6870558294116347      4.974180024633956+0.0370543577889775i
-2.9639227034771576       -3.576317074084635       8.00496382209357+0.012684386140071483i
-0.8677756912327858       -2.0448137482337025      5.994703193781985+0.026391296678730903i
-1.1202396707684847       -2.01846373830974        6.675994866988339+0.026262438901674654i
-1.3808943996698213       -1.9463353720160699      7.236891254109071+0.02517150234720168i
-2.4122074973444945       -1.8265207833513917      8.361182070585013+0.015522414677851596i
-2.1722334251830304       -2.1834583064957047      7.93122989526798+0.017190891440912872i
-1.7109447910791769       -2.067269648286285       7.558564313524182+0.021190930997187548i
-2.375800036095334        -2.6437720946543246      7.86183508523776+0.01533744193618862i
-2.6688354389265054       -3.106327597199387       7.923611814318433+0.013761882092047194i
-0.7719886211702347       -2.225186064637391       5.548175184147678+0.02276741143174665i
-0.6199651493021068       -2.3196638580547955      5.031785872753478+0.020159917679211718i
-0.4642160381117315       -2.355332045651952       4.4818248320097425+0.01778058550631371i
-2.664277381306553        -4.051746795148873       7.776654355679059+0.013307443595780588i
-2.3680536226448563       -4.527521356146179       7.588383559969512+0.013781714830432357i
-2.074074074074076        -5                       7.424436624700243+0.014249064428003428i
-7.524314107750701        2.927023301573244        10.71120976881327-0.004873111707044817i
-8                        3.235294117647051        10.75109882614381-0.005131877844566931i
-7.520053719583547        3.49127265884537         10.794382837339244-0.005416461801219321i
-8                        3.8235294117646963       10.82251921638764-0.005596715203977034i
-7.055734630128761        2.0468456720378985       10.556079449977956-0.003854004042791652i
-7.058341574055326        2.626171201308585        10.679332255524612-0.0046754565305600895i
-1.7440873128593524       -0.8883308834389557      9.025343479933765+0.020885396025138444i
-1.5524853264947323       -0.6348159056958036      9.346185970392826+0.021326042518192808i
-1.3632081176855326       -0.42383820593961485     9.636899478377375+0.0203557635726498i
-1.2164810310246694       -0.2733170880253931      9.832265942794606+0.017492394835152754i
-2.8581925306220897       -1.6047653587391617      8.75746896451389+0.011807887107303405i
-2.3471673930431267       -1.4231670713624245      8.659355542576849+0.015300870439267518i
-2.08779378753066         -0.8463786625739362      9.144004896936545+0.014534480667103533i
-2.30586992055707         -1.0457597829545406      8.99924217441735+0.013721152064511539i
-3.3195436908569493       -1.1690751762345304      9.20626800450969+0.007574341859709855i
-3.551936095847806        -0.8226876743737263      9.47462538303194+0.005000135058000887i
-4.308672381814284        -0.8409096851494787      9.574253791620682+0.0035399962923871324i
-3.8852526534452556       -0.7009481040921919      9.59531381127427+0.0036349437719427344i
-5.634558781014161        0.003566999237493036     10.001834413324703-6.165190070896928E-6i
-4.70039798950269         -0.559452347297241       9.744378581667126+0.002052293013485145i
-5.160478434141429        -0.27472479273208733     9.888330789393187+8.65814515713189E-4i
-6.120164384712681        0.8694976449183558       10.286022919772504-0.002052712040860514i
-5.647984371095171        0.5790237291505757       10.210789491864018-0.0015514840981094202i
-6.586587003945371        1.7501177278659974       10.512261652501914-0.0035861520536231914i
-6.126311738550127        1.4589798230430313       10.466966593808081-0.0033212093126096594i
-0.3281142587956908       -2.3648838106620014      3.973120249893372+0.015561304631007715i
-0.21754956660966113      -2.356893526043739       3.5428873373278833+0.013717458226972507i
0.05078330470032379       -2.05                    0
-0.09518483852984065      -2.3497659537909326      3.1916024769065356+0.012152287800754509i
-0.04150443935508732      -2.2397804832673054      2.279903785952644+0.00900675344541236i
0.09982998685497028       -2.142928812066141       1.4090816920617517+0.005904989884019575i
0.04717855415788655       -2.208837520699757       1.9943500285898579+0.007975544252540922i
-0.1439985611230794       -1.7671003077808385      3.2931932623251616+0.026114433883930307i
0.05078330470032263       -1.95                    0
0.0025826844107805034     -1.860797696017543       1.5782566085168286+0.0126700409232106i
-0.0501561605676583       -1.794716431459819       2.6443704462509476+0.021461768805046084i
-0.5895182718562063       -1.454851547021962       7.013264141109842+0.05096796325821242i
-0.6890881931396972       -1.2443809849888234      8.069853458350538+0.05906998205221869i