% Model:              VLR_3_01V03.mph
% Version:            COMSOL 5.5.0.292
% Date:               Jun 30 2020, 18:45
% Dimension:          2
% Nodes:              2080
% Expressions:        1
% Description:        Electric potential
% Length unit:        cm
% x                       y                        V2 (V)
-0.2                      0                        10.000046956868243
-0.23680405361441928      -0.014996048111892871    9.954986058897502
-0.19480050445325514      -0.045307432776061314    9.900703488090596
-0.1799784452820661       -0.08722246977614395     9.80878137369028
-0.22190121073295035      -0.08712143176295017     9.736553563862584
-0.19480055158252196      0.04530723014205566      10.09941139448261
-0.23416840022706975      0.033896342664274014     10.101558963924719
-0.15626273723914907      -0.12482770906545015     9.726246628801247
-0.19752671641129205      -0.12881640999066413     9.615848077364797
-0.1799795388163249       0.0872202132963627       10.191331918905682
-0.2197295992380691       0.08248374243988993      10.244347195713358
-0.16527691024220756      -0.16676954261626323     9.50528944547709
-0.1248260106301913       -0.15626409398883467     9.65719021846864
-0.19718861460457904      0.1262614968735954       10.37297549529387
-0.15626441318037387      0.12482561104754661      10.273866026573625
-0.125876657952965        -0.1989408207590936      9.407312881920307
-0.08722051950937931      -0.1799793904215535      9.605048274868123
-0.07956344914147358      -0.22288848187695065     9.33084290301012
-0.04530739583334546      -0.194800513045527       9.572437068999534
-0.16627663778645987      0.1639142934678821       10.482575228917632
-0.12482824553099213      0.15626230869168145      10.342918846170642
-0.027808321597114716     -0.23673463385742669     9.28228452185027
0                         -0.2                     9.560978970009204
-0.08722323530655218      0.17997807428311324      10.395051292974749
-0.12986285832740652      0.19669082177014938      10.587007923115449
-0.04530842701600124      0.19480027320652224      10.4276518437294
-0.08715340899540129      0.2211052869497194       10.667652864232076
0.026662165977415886      -0.23680260636585118     9.282311917548741
0.045307432776061314      -0.19480050445325514     9.572433775881485
0                         0.2                      10.43911017474498
-0.01470240251071097      0.23496887030332536      10.700806537291031
0.08722246977614395       -0.1799784452820661      9.605048596297891
0.07998981461052632       -0.22430114372947446     9.321016466415793
0.1255875227412274        -0.19895662487960034     9.407741003298755
0.12482770906545015       -0.15626273723914907     9.65718741739577
0.1652131496948351        -0.16646257241289236     9.506960438434524
0.15626409398883467       -0.1248260106301913      9.726241710659062
0.04530839156627776       0.1948002814517393       10.42766780759098
0.03335573178440219       0.23434961517404657      10.704046663405713
0.08722128626596289       0.17997901883861617      10.395058259018755
0.08205571128200087       0.22045211909054963      10.656491329821435
0.19773689106680403       -0.12706391585784707     9.622777878203697
0.1799793904215535        -0.08722051950937931     9.80877500222233
0.22165379421376705       -0.08289074749619735     9.751790014313206
0.194800513045527         -0.04530739583334546     9.900698017467882
0.12619701748718368       0.1979775776411388       10.587720018215903
0.12482654379450844       0.1562636680880034       10.34291765919066
0.16543716852450424       0.1673435978301145       10.498039416319138
0.1562630560905248        0.1248273099175397       10.273858816950693
0.17997859391757526       0.08722216307483177      10.191325650656701
0.19662251567999214       0.13079841235005635      10.390936600678115
0.19480054305546163       0.04530726680453399      10.099403688851767
0.22100155920349568       0.08890431050908189      10.268697403886952
0.2                       0                        10.00006189349625
0.23702935428761363       0.016545067059576396     10.049875314138378
0.23575011830127657       -0.033067357589110176    9.90023209835037
-0.08316727109084406      -0.008928170447272305    9.972067674545148
-0.1                      0                        10.000064070501546
-0.09731391780489294      -0.023021759304243883    9.927897788566527
-0.0898901412414413       -0.0438150945176857      9.862715574973528
-0.07576082964451092      -0.02684888440678808     9.91589175851211
-0.07158468585671059      -0.04577767313619206     9.856552268368349
-0.0780843674158894       -0.062472646536387344    9.804210252248494
-0.08001090557392289      0.009415227304587178     10.02957200562755
-0.09731373577189135      0.023022528751605736     10.072204664297546
-0.0572098444221828       -0.05779125887453538     9.818879853024834
-0.06247245590538912      -0.07808451993288563     9.755242258752572
-0.07903775538947982      0.027727529513241107     10.086973462802522
-0.08989024584483046      0.043814879914886674     10.13738951892096
-0.06856867190241586      0.04174005024989451      10.130903045576114
-0.07808451993288563      0.06247245590538912      10.195897534158313
-0.04556059457081376      -0.07099212839442245     9.777483329738429
-0.043814879914886674     -0.08989024584483046     9.718203591933655
-0.059356846068558955     0.05832608887459728      10.182905766551617
-0.062472646536387344     0.0780843674158894       10.244867461856122
-0.023022528751605736     -0.09731373577189135     9.69490762797745
-0.028807793426275655     -0.07476133279750481     9.765655943319603
-0.011041741974707857     -0.08255348451224674     9.741217802524995
0                         -0.1                     9.686492039620996
0.008955078750616078      -0.07969284863388615     9.750187456313261
0.023021759304243883      -0.09731391780489294     9.694906099439256
-0.043833355584700855     0.06620296863974261      10.207611305820144
-0.0438150945176857       0.0898901412414413       10.281903461808575
-0.02781013063358238      0.0774042255064618       10.242740301910391
-0.023021759304243883     0.09731391780489294      10.30520882184021
0.02689085047535659       -0.07912932225465784     9.751957616547887
0.0438150945176857        -0.0898901412414413      9.718202125927569
0.062472646536387344      -0.0780843674158894      9.755240457503879
0.03974935762122233       -0.0687798882978241      9.784414630532135
0                         0.1                      10.31362793821245
-0.008771284023117597     0.07856526860569406      10.246386826184716
0.010058257003587444      0.08342293264067518      10.261616856050338
0.023022528751605736      0.09731373577189135      10.305191367014679
0.043814879914886674      0.08989024584483046      10.281900056705103
0.02718407321736742       0.07497207255902334      10.235112176489304
0.04526737166538476       0.07101410618995349      10.222692925162587
0.06247245590538912       0.07808451993288563      10.24486438898665
0.05604370651782325       0.056098343199111805     10.175921277921644
0.0780843674158894        0.062472646536387344     10.195896862191042
0.07034806760624257       0.043578658849091276     10.136663484916616
0.0898901412414413        0.0438150945176857       10.137392093742992
0.07808451993288563       -0.06247245590538912     9.804209032566494
0.05586676763140358       -0.05722451761589651     9.820653455680143
0.09731391780489294       0.023021759304243883     10.072209761868896
0.07444297045927654       0.026340026039710904     10.082622502283767
0.08222481734558168       0.006713862554193483     10.021099162196409
0.1                       0                        10.000044172984529
0.09731373577189135       -0.023022528751605736    9.92790421692669
0.0802405789013957        -0.0123035544999216      9.961482578478366
0.06842195598000522       -0.04282355218557024     9.865808202771559
0.08989024584483046       -0.043814879914886674    9.862717379229327
0.07945828958884983       -0.029014241803555187    9.90910180335744
-7.617481969205135        -4.599795824742202       7.354143936085793
-8                        -4.411764705882353       7.395047076523695
-8                        -5                       7.3523889986334945
-7.407407407407416        -5                       7.308982175830759
-7.568989253557476        -4.104004262156599       7.428672329867795
-8                        -3.823529411764707       7.522287682336725
-7.1110131850607825       -4.483210155672055       7.28805446812695
-6.814814814814824        -5                       7.17806778951125
-7.537861788177438        -3.532315787535566       7.5910505997039115
-8                        -3.2352941176470598      7.731740562835811
-7.098715959019531        -3.8299982718883276      7.423208932156467
-2.103415271294287        -1.7355461520994593      2.5460217501940368
-2.043445525297691        -1.827720137529849       1.697580363725313
-1.9955068013505064       -1.7260845081909546      2.177864585751991
-2.132253521175323        -1.816625789895118       2.256044779087226
-2.108351239382444        -1.902098270728308       1.674248629285352
-2.2035257140064393       -1.8611783264444064      2.4666559577759615
-2.1742331504369874       -1.951144787684148       1.98780730180709
-1.8790163378084341       -1.7156925398360487      1.9160159334288025
-1.9481325059924641       -1.6091358200364712      2.7581974940099694
-1.8336486774561855       -1.5823480736904099      2.6679173867617454
-6.676950568439604        -4.09497140493427        7.239552420490297
-6.5034145823487055       -4.52780789789533        7.102356423754123
-6.22222222222223         -5                       6.957861400711981
-7.519088379161485        -2.950440723926069       7.836412432839729
-8                        -2.647058823529412       8.018885370522396
-7.043151343128878        -3.2453438712591107      7.623457743550065
-2.2044770800897617       -1.7512852050613332      2.9168923195404783
-2.308821448976307        -1.7962468615952556      3.2129286432643
-2.069168969243811        -1.6256295143582824      3.01302377438
-2.178113213573404        -1.6340429853645793      3.3380804692664374
-2.024601080251321        -1.5278081744814336      3.402500644912183
-1.9262141707251035       -1.4776634290569655      3.443970676378314
-1.7014550734882918       -1.5566708473036903      2.6134031608429287
-1.7908826100222401       -1.4279537984107704      3.4731534033691855
-0.24183000055530499      -0.05295522183052777     9.832357820629909
-0.2825186163395505       -0.030817045456216732    9.888890843413009
-0.269372526057573        -0.08077456762927632     9.711042572498407
-0.3128612238622501       -0.06706390747960553     9.738624934799923
-1.5475151999429335       -1.5430454341042372      2.52642722466897
-1.6158354260782035       -1.3896798500011174      3.457536341724945
-6.519944654282603        -3.5558270666109295      7.348266807871993
-2.2930178439778155       -1.9496690437022715      2.715162038241838
-2.198997283401753        -2.0392286910470903      2.0188044363785376
-2.4356551288421633       -1.8480701837915736      3.5953117313859413
-1.9344882828222516       -1.836582299783143       1.1524173562788562
-2                        -1.95                    0
-2.0989680336136          -1.9987302125361828      1.2633641113900422
-2.1143025806659588       -2.0964697485593624      1.4391326826739717
-1.757166532584985        -1.701063394477055       1.7935816795399873
-1.6265078629304535       -1.6937575851430946      1.6910488018146295
-1.4875430527509512       -1.7016219506632555      1.5411415034583626
-1.4066339526139071       -1.5899702767033408      2.1521423491164247
-1.8150210531906703       -1.8326153205598839      0.9443073553398439
-1.3332543962403594       -1.700533777338563       1.475383345388855
-6.1954554120760505       -4.0608830791983666      7.061092580040856
-5.9174094853454555       -4.528803583512257       6.838337613517161
-5.629629629629637        -5                       6.646205671545046
-7.518409648733784        -2.358297117352814       8.16402283352629
-8                        -2.0588235294117663      8.37643262231376
-7.032278150160747        -2.6551445272457523      7.917610751224655
-6.538847383670837        -2.9429843489962373      7.629622715165238
-6.113749968614284        -3.1827233752645436      7.343587633482651
-2.3020237312389042       -1.6485640858193091      3.713127335864779
-2.4057619925323492       -1.7111385649417912      3.864225884579676
-2.5448726660363032       -1.7082840064895817      4.333402681965979
-2.1306940681933098       -1.5116395907000602      3.7632362404498445
-2.2693181145066306       -1.5098452088401642      4.157925383923776
-1.7403026502058772       -1.23482678069208        4.4161551314822525
-2.0453157947309215       -1.406469398645222       4.058886654558015
-1.9147043558974877       -1.3122653090774863      4.2740798604233206
-0.34457749467963594      -0.013741342039386978    9.944474177908392
-0.2863031985163553       0.01792878178260534      10.06523156407321
-0.2479519575487239       -0.12768728168123564     9.545893174946187
-0.30917214730665793      -0.119002517565122       9.527247422029378
-0.3748029627264978       -0.08982224224517106     9.619803604713818
-0.4145387952382994       -0.015059987481498362    9.934849997544772
-0.47271444377292304      -0.08060510743141822     9.63832736556911
-0.4782486895564626       -0.0017446278898454806   9.99226260901261
-1.5273729645976155       -1.18679807756917        4.447346470411559
-1.4026076418732196       -1.4094440974404496      3.1654721619396184
-1.2704359227865185       -1.550436211633779       2.306877365881519
-1.2009477227623337       -1.6920653572969186      1.4813380654441348
-5.9252521815091805       -3.606735016881874       7.071026806290192
-2.4378664506054535       -2.0012651821140963      3.3011036946182215
-2.2097447257258205       -2.1402723177954552      2.0831959359928884
-2.1344988264167197       -2.1822265463637742      1.7174609065543496
-2.3158727121986984       -2.078951516741306       2.6541781023987663
-2.620777021445263        -1.910705847462847       4.12216445280358
-1.8888416738200915       -1.9499999999999997      0
-2.204577828280293        -2.2484316272536313      2.15136928654379
-2.10062657168254         -2.257575628494126       1.7101090022545888
-2                        -2.05                    0
-2.046548335607925        -2.170356153309678       1.2161733123942728
-1.6873501906358765       -1.8252960003292025      0.8769057806072044
-1.5505826252802593       -1.8243126545711978      0.8107553372710633
-1.4085014409293055       -1.8252003912916346      0.759552367789277
-1.7577197014044759       -1.95                    0
-1.266908117065196        -1.823485302628321       0.7400921941156954
-1.127621828671668        -1.8231082436979362      0.7221444347627851
-1.0626731057391061       -1.699484019442015       1.4076180269104401
-5.622071543087627        -4.061607283953832       6.758785034383524
-5.329573760446191        -4.528852519549517       6.48230671010397
-5.037037037037043        -5                       6.242159573781915
-7.52050327436616         -1.7679728856368968      8.558243707983321
-8                        -1.4705882352941193      8.793812606219252
-7.037471963306144        -2.0664771598697294      8.289609493650294
-5.6194457002067395       -3.133718690964597       7.112671352589565
-6.536332243122383        -2.3662869925136705      7.971073433287251
-5.98762794271612         -2.6525802610834184      7.581788530152239
-2.4369904903098476       -1.5523930672059434      4.479081308018297
-2.6057612083064177       -1.5516123389540224      4.937899478644851
-2.7642902440614656       -1.6757829095896835      5.023284962579324
-2.1957397422842475       -1.3595320400134678      4.603322098515469
-2.372326247055965        -1.3528271481321004      5.024985171384555
-1.683246687014657        -0.9925320906283867      5.548131626480141
-1.908401405810891        -1.091240695786359       5.321548308409869
-2.07915348953935         -1.2186514924435827      4.9931411412519955
-0.37811725467140456      0.038287743738996606     10.161306881670203
-0.3255280168923718       0.05556898266528723      10.220327885642929
-0.26737299841105255      0.072654349732986        10.256927923035661
-0.5671218354035695       -0.03190137147191452     9.85299464895864
-0.5203372052706837       0.04755479144536852      10.216760791100656
-0.44508930504208777      0.06337306052602004      10.28046690266156
-0.2151664626384633       -0.17444001626446984     9.382566507879766
-0.2747297275847299       -0.17605061583816134     9.305394323307121
-0.3508119136259299       -0.16754745398492088     9.287886320195817
-0.43722074148268886      -0.16306977462004008     9.271591201252576
-0.540772790375903        -0.14520418875593527     9.331088687846831
-0.6442489396009783       -0.13320742508976602     9.376152883661304
-1.4257981225725747       -0.9300505219941101      5.6652261589392205
-1.2967425854455734       -1.1638637326914003      4.408704079466214
-1.1864205534763497       -1.3808440154660717      3.2027465387979466
-1.1221469865749192       -1.5400241720446917      2.308349712933541
-0.9811482543151167       -1.590892275699835       1.9914010730473346
-0.9086611729584856       -1.6961595895271246      1.4011673973233212
-5.331690591637107        -3.5884002880588155      6.722760374859086
-5.047956593272735        -3.093495988559296       6.748729307198928
-2.88206292485942         -1.9254822688926527      4.835343509959693
-2.5550398504563483       -2.092761100405282       3.628732134369694
-2.442356271275666        -2.1666938869734413      3.1482660868631065
-2.3213778560904728       -2.2146652103053204      2.642247853013014
-2.726013955432697        -2.1204920410471444      4.141430657911307
-2.3005900050668675       -2.341928140172969       2.609414344235994
-2.180380162972811        -2.354917364848545       2.1857456888848255
-2.077996930280164        -2.366967220066143       1.8508855884046052
-2.0013141579202207       -2.274201383632283       1.3677538781475482
-1.8888416738200915       -2.05                    0
-1.939575259125533        -2.1655830913182994      0.7468025764482911
-1.6171055386819164       -1.95                    0
-1.4764876657530528       -1.95                    0
-1.3358697928241892       -1.9499999999999997      0
-0.9853001914903912       -1.823578677836544       0.705090190154028
-1.195251919895326        -1.95                    0
-1.0546340469664628       -1.95                    0
-0.8441895756727398       -1.8227082917504935      0.6997850410663532
-5.033045980112118        -4.055976482150932       6.355462024660842
-4.737399901404758        -4.529909952543881       6.03063692055384
-4.44444444444445         -5                       5.7486574544425615
-7.522664705770968        -1.1784690170906695      9.006569402643384
-8                        -0.8823529411764723      9.257056668497466
-7.043818409098872        -1.474761007429833       8.728681215260979
-6.565595151101111        -1.7723634107869355      8.408139401627297
-5.36435055071105         -2.6280493007902166      7.261448914798295
-4.759562368806341        -2.5371190822421332      6.883166651554703
-6.081234835480203        -2.04918911602856        8.046579700363822
-5.630620573858755        -2.2155089785708846      7.719628678477664
-7.522859087574403        -0.5888103367212633      9.493678390228377
-8                        -0.29411764705882604     9.749199783774186
-2.5649627199410405       -1.378775317094452       5.363212941299331
-3.004348920525829        -1.708824069415675       5.503579259894435
-3.2002051932268274       -1.9056391219714082      5.5618691769651845
-2.76842907258714         -1.4192912037899652      5.676257541641291
-2.923779894669885        -1.506280632123037       5.771259458629375
-2.2783072470624584       -1.1592737434144011      5.584959561869219
-2.5033763622884817       -1.1427022235449555      6.029405783047584
-1.1453831519485242       -0.16661437403913198     9.220637185335654
-1.3230941395233562       -0.016434535800234594    9.924699929879724
-1.409439712963328        -0.33902295011137673     8.45349475607685
-1.5927323446381894       -0.6997699018347003      6.85992257725458
-1.9050489092456042       -0.8122918884560983      6.571623451368363
-2.12796032473546         -0.9768660352592371      6.103704661579967
-1.6469756703415956       -0.015470847050934981    9.932297913437624
-1.6130858733881697       0.28165028977179646      11.24358606945226
-1.8619790451859939       0.25433637700476686      11.06705835507021
-0.3728991064935107       0.10143176229043896      10.429939231013458
-0.3037631422236038       0.1168740231583325       10.460162205482632
-0.24604087843879024      0.12462664659101794      10.439270823024687
-0.6984994110001138       -0.004267116864755019    9.980061202026732
-0.7763624171346803       -0.1338130559025393      9.367509336148764
-0.8413252907775007       0.014691074818346533     10.069563547696406
-0.9515845031745138       -0.1572534135230555      9.256603333461198
-0.6023325596720952       0.07578712815141417      10.35227595596601
-0.5088936366792033       0.1322597679111684       10.603831988556655
-0.4243990869813588       0.15493926525518992      10.687126715291443
-1.4142643574901301       0.1918540819064413       10.872680470050168
-1.0379100983694953       0.060961363708218426     10.287079046614721
-1.1721072514506243       0.2274898545374879       11.062986406358759
-0.17399191952083878      -0.21675127701745378     9.229909993972724
-1.2719557330208544       -0.6609137274316801      6.903373058050982
-0.6931731371099658       -0.22873468708302286     8.919703065156876
-1.0583226019516327       -0.4000212482922113      8.10812274302223
-0.8268577259418911       -0.2953882701566728      8.596135990679537
-0.5958205892893428       -0.2453062259170043      8.850368925502211
-0.23317155224708724      -0.2318859091307538      9.080218765760423
-0.30554624685025195      -0.24277721838805003     8.965071439637997
-0.39167509005353623      -0.24943910270234662     8.884874162075603
-0.49081735389053155      -0.25029715229350835     8.84688056930704
-1.1642676824186462       -0.9159753719116601      5.611720547138472
-1.06822118405365         -1.1668315319229934      4.29172078535997
-0.7051621669159317       -1.8237163764893456      0.6871926223888264
-0.7785985733759144       -1.6927931195496668      1.4044863703237718
-0.9713008385529495       -1.4098994260738469      2.9720524041697165
-0.8447900907382275       -1.5508010730635684      2.184110602620738
-0.5633552002196539       -1.826285455516024       0.6682768675274344
-0.638650922938674        -1.700511392119888       1.3510873709345643
-4.742371243734298        -3.5788694767804885      6.269323217991702
-4.470319104540874        -3.0948190925195282      6.244033306775601
-4.178597682691998        -2.6407698750695694      6.232207249419409
-3.3983780827764556       -2.2286840384155417      5.514633853765596
-2.979140185826568        -2.228908254184101       4.679186558993707
-2.5965002018557124       -2.2636993990188055      3.62468379677274
-2.455125593995492        -2.311713772895119       3.1467937812950955
-2.7487501086812225       -2.320027039845182       4.028247145305833
-2.2742225238962224       -2.457609628554111       2.6036200922696797
-2.397428636131366        -2.4360620094882632      2.9737772201982633
-1.7577197014044725       -2.05                    0
-1.817116023129024        -2.167454064123505       0.5129387161198485
-1.6171055386818856       -2.05                    0
-1.684713828564333        -2.1722376450015703      0.4067524804354286
-2.146407653076848        -2.465489944650719       2.2228319343476954
-2.0407203114002286       -2.453235661579788       1.9000725288085287
-1.9617648316182412       -2.3826126392231384      1.5381082419389436
-1.8867398389203673       -2.283090835216204       1.06934299920815
-1.4764876657530244       -2.05                    0
-1.5413548711450917       -2.180802745216718       0.3533068984661987
-0.9140161740375993       -1.95                    0
-0.7733983011087356       -1.9499999999999997      0
-0.6327804281798723       -1.95                    0
-0.49216255525100905      -1.9500000000000004      0
-4.437725395766097        -4.062004012087347       5.845614422209818
-4.142283265427805        -4.532885824594065       5.4875292805460765
-3.8518518518518565       -5                       5.1765864899515455
-7.04520293923666         -0.884044245192212       9.216678884302466
-4.350684872075467        -2.1703506575184823      6.831193398947556
-3.866979374894422        -2.2104571053831448      6.237935187019929
-4.7136970312752995       -2.12452808467214        7.203262807650286
-6.566959586791811        -1.1788204349814273      8.902015682272248
-6.087937427577459        -1.4661579850856343      8.53879454995385
-5.120274112296461        -2.0752593034892586      7.544888520789805
-5.60807381120726         -1.7380962169615037      8.117808274780522
-7.523188682401901        8.358546728680823E-5     10.000282355255182
-8                        0.2941176470588207       10.25121971735105
-7.04623688203826         -0.2943614137015959      9.73569476300972
-7.5236934508775475       0.5883502613259286       10.506327823751827
-8                        0.8823529411764666       10.743361539470103
-3.6025876347442733       -1.8208128470155638      6.354836659828359
-4.093787323399867        -1.7643961355399078      7.03284978286758
-2.7371776209419574       -1.1737358352064189      6.317970701237841
-3.260163954629575        -1.5158432230730519      6.3480197686818
-2.9859120832897696       -1.2587380859744155      6.48419047790582
-2.3912869770796887       -0.9050636412503685      6.715059320427166
-2.681050626686491        -0.8942861854730089      7.10311698027263
-1.894139624777462        -0.4238487579551439      8.229943668828641
-2.199300500964003        -0.6735844262051732      7.399839053432076
-2.0128391343305747       -0.05672571890840804     9.77137842422563
-2.113152191319274        0.20463726878147329      10.804654697546123
-2.0778352730658782       0.3940386637648407       11.568191138766357
-1.9096927131615422       0.5592490536418315       12.335090973485906
-1.6805926510597302       0.5071591871312678       12.22342603127514
-1.4616176428633985       0.47037264986744115      12.137532664861347
-0.3395460458944055       0.17100082763558505      10.721352869224935
-0.27092563228886496      0.1754720813007812       10.688431568486449
-0.2135496180181695       0.17209681427960002      10.604209636094382
-0.8632873513230832       0.16410637643761622      10.777307133195984
-0.720307963663118        0.15841229505459437      10.747529767680758
-0.376327322177927        0.24124775268524012      11.069084051975553
-0.5808918813423267       0.20696674238228546      10.965347063147151
-0.4698523700312963       0.2323477724617479       11.062212250527155
-1.249201561501292        0.4418247249956707       12.059472982998363
-0.9703547530064961       0.27523732282858476      11.303584844228714
-1.056708232701975        0.40066845406319845      11.895393586241903
-0.12452224497123857      -0.25113385469775523     9.100826992514113
-0.18078284736234074      -0.2779085982521446      8.891649830402043
-0.9999720820154481       -0.6794045884445994      6.742346421166553
-0.6793495263209728       -0.34720708900244146     8.350874478639982
-0.8051944866053605       -0.5039718101252149      7.583551093283474
-0.547242228091562        -0.353721289580384       8.33501070267796
-0.2497766807427829       -0.3042001339618387      8.697248844953407
-0.33350013485346647      -0.3279198894756346      8.528323457036912
-0.4321726840501568       -0.3450423321853396      8.404928866158512
-0.9349664340487717       -0.9368422773132947      5.437809289145208
-0.8510368028444817       -1.1742660859599312      4.192025418020314
-0.42192002012746205      -1.8248104507157061      0.6728521360068375
-0.6993583573862304       -1.5416515228216472      2.213017166242882
-0.7607783589082279       -1.384049873652272       3.0657213955221554
-0.4872215923589078       -1.703606000467262       1.326024681611692
-0.5584230078890793       -1.588835389753033       1.9462755845527802
-0.06655052597910252      -0.2749936661936646      9.007470071197035
-4.134218954081416        -3.604929083342973       5.670827024080936
-3.846450697046022        -3.130575274872983       5.529687625739669
-3.601463855553           -2.6444868652119595      5.478771573235956
-3.14074610349277         -2.561997698119142       4.755480181285216
-2.8552528221459204       -2.4765753670492368      4.2022584409159265
-2.586843378145214        -2.5104601379266227      3.52226703140759
-2.2406219691931972       -2.590930258817792       2.6209503301394528
-2.37991553633372         -2.5563249889954474      2.9714035257312643
-1.758038219522287        -2.2938840794229973      0.8663880021169036
-1.617504909844874        -2.293417628766713       0.7027410834916451
-2.079591377246615        -2.5736743607503785      2.1900140639068346
-1.9534059907939543       -2.512131834617071       1.789232057982421
-1.8431531207111032       -2.415343021280157       1.3443428525323629
-1.3358697928241634       -2.05                    0
-1.4046690381682698       -2.1828046194760997      0.30847217795481136
-1.2659303369468484       -2.1827197053623477      0.27261855642848837
-1.1952519198953024       -2.05                    0
-1.1257624991470436       -2.1809880109373756      0.24302346836636032
-1.0546340469664415       -2.05                    0
-1.4713329390103156       -2.313260022649019       0.6386409610675922
-0.9845078264831392       -2.1819009435650956      0.22477514728407777
-0.9140161740375805       -2.05                    0