% Model:              VLR_3_01V03.mph
% Version:            COMSOL 5.5.0.292
% Date:               Jun 30 2020, 18:42
% Dimension:          2
% Nodes:              2080
% Expressions:        1
% Description:        Electric potential
% Length unit:        cm
% x                       y                        V2 (V)
-0.2                      0                        10.000052087015252+0.0035123985342318774i
-0.23680405361441928      -0.014996048111892871    9.97824439865096+0.0032797235968211485i
-0.19480050445325514      -0.045307432776061314    10.00005208701525+0.003512399294184915i
-0.1799784452820661       -0.08722246977614395     10.000052087015247+0.0035123999972209515i
-0.22190121073295035      -0.08712143176295017     9.870544401642194+0.003272658653864276i
-0.19480055158252196      0.04530723014205566      10.000052087015257+0.0035123977740423953i
-0.23416840022706975      0.033896342664274014     10.048652909054676+0.0032835011589465433i
-0.15626273723914907      -0.12482770906545015     10.000052087015238+0.0035124006283941667i
-0.19752671641129205      -0.12881640999066413     9.818420292856578+0.0032867152241630696i
-0.1799795388163249       0.0872202132963627       10.000052087015266+0.00351239707100613i
-0.2197295992380691       0.08248374243988993      10.113394307455017+0.0032940377967453608i
-0.16527691024220756      -0.16676954261626323     9.769929134830639+0.0032917333535778218i
-0.1248260106301913       -0.15626409398883467     10.000052087015211+0.0035124011564071785i
-0.19718861460457904      0.1262614968735954       10.17152735472195+0.0032964947885565795i
-0.15626441318037387      0.12482561104754661      10.000052087015263+0.0035123964398339966i
-0.125876657952965        -0.1989408207590936      9.721381823677921+0.003287098561574982i
-0.08722051950937931      -0.1799793904215535      10.000052087015169+0.0035124015550297657i
-0.07956344914147358      -0.22288848187695065     9.679043201287042+0.003278973470314469i
-0.04530739583334546      -0.194800513045527       10.00005208701514+0.0035124018043139658i
-0.16627663778645987      0.1639142934678821       10.219503170761515+0.0032994614902026403i
-0.12482824553099213      0.15626230869168145      10.00005208701526+0.0035123959118557153i
-0.027808321597114716     -0.23673463385742669     9.64685407565645+0.0032685698561690335i
0                         -0.2                     10.000052087015112+0.0035124018919254433i
-0.08722323530655218      0.17997807428311324      10.000052087015257+0.0035123955133413275i
-0.12986285832740652      0.19669082177014938      10.277229780894855+0.00328554731684514i
-0.04530842701600124      0.19480027320652224      10.000052087015245+0.0035123952641717034i
-0.08715340899540129      0.2211052869497194       10.325208131758712+0.003273181476326738i
0.026662165977415886      -0.23680260636585118     9.647173374087641+0.0032689194092036383i
0.045307432776061314      -0.19480050445325514     10.0000520870151+0.003512401804342377i
0                         0.2                      10.000052087015234+0.0035123951765480403i
-0.01470240251071097      0.23496887030332536      10.329802046736797+0.003285696822818805i
0.08722246977614395       -0.1799784452820661      10.00005208701511+0.003512401555022689i
0.07998981461052632       -0.22430114372947446     9.667051919870419+0.003270364051445434i
0.1255875227412274        -0.19895662487960034     9.722217422307379+0.003287917820891106i
0.12482770906545015       -0.15626273723914907     10.000052087015115+0.0035124011564327917i
0.1652131496948351        -0.16646257241289236     9.771720633895002+0.003293282471408593i
0.15626409398883467       -0.1248260106301913      10.00005208701511+0.0035124006284393597i
0.04530839156627776       0.1948002814517393       10.000052087015222+0.003512395263988577i
0.03335573178440219       0.23434961517404657      10.338036242296221+0.00327825620783626i
0.08722128626596289       0.17997901883861617      10.000052087015202+0.003512395513255656i
0.08205571128200087       0.22045211909054963      10.307832573750927+0.0032874422164508523i
0.19773689106680403       -0.12706391585784707     9.823941035976757+0.0032912698988731112i
0.1799793904215535        -0.08722051950937931     10.000052087015117+0.003512399997280187i
0.22165379421376705       -0.08289074749619735     9.881203706881637+0.0032827844965864672i
0.194800513045527         -0.04530739583334546     10.000052087015131+0.003512399294215587i
0.12619701748718368       0.1979775776411388       10.273441606403095+0.0032908685375054674i
0.12482654379450844       0.1562636680880034       10.000052087015202+0.003512395911867162i
0.16543716852450424       0.1673435978301145       10.233673225767715+0.0032886715215748193i
0.1562630560905248        0.1248273099175397       10.000052087015192+0.0035123964399091513i
0.17997859391757526       0.08722216307483177      10.000052087015165+0.003512397071065812i
0.19662251567999214       0.13079841235005635      10.185832059604804+0.0032847219831923786i
0.19480054305546163       0.04530726680453399      10.000052087015149+0.003512397774103284i
0.22100155920349568       0.08890431050908189      10.131754689007677+0.003273636088096294i
0.2                       0                        10.000052087015135+0.0035123985340396366i
0.23702935428761363       0.016545067059576396     10.024282360636212+0.00327783922822212i
0.23575011830127657       -0.033067357589110176    9.9512065922101+0.003275198885070718i
-0.08316727109084406      -0.008928170447272305    10.000052087015911+0.003512398773881208i
-0.1                      0                        10.000052087015774+0.0035123985340201453i
-0.09731391780489294      -0.023021759304243883    10.000052087015753+0.003512399152242189i
-0.0898901412414413       -0.0438150945176857      10.000052087015733+0.003512399710597377i
-0.07576082964451092      -0.02684888440678808     10.000052087015922+0.003512399255077948i
-0.07158468585671059      -0.04577767313619206     10.000052087015858+0.00351239976337091i
-0.0780843674158894       -0.062472646536387344    10.000052087015728+0.0035124002117711134i
-0.08001090557392289      0.009415227304587178     10.000052087015938+0.0035123982812726713i
-0.09731373577189135      0.023022528751605736     10.000052087015767+0.0035123979161353585i
-0.0572098444221828       -0.05779125887453538     10.000052087015867+0.0035124000860562894i
-0.06247245590538912      -0.07808451993288563     10.000052087015716+0.003512400631232813i
-0.07903775538947982      0.027727529513241107     10.000052087015918+0.003512397789576503i
-0.08989024584483046      0.043814879914886674     10.000052087015765+0.0035123973577301302i
-0.06856867190241586      0.04174005024989451      10.000052087015945+0.003512397413289747i
-0.07808451993288563      0.06247245590538912      10.00005208701577+0.003512396856520527i
-0.04556059457081376      -0.07099212839442245     10.00005208701584+0.003512400440640272i
-0.043814879914886674     -0.08989024584483046     10.000052087015694+0.00351240094849644i
-0.059356846068558955     0.05832608887459728      10.00005208701591+0.0035123969678497796i
-0.062472646536387344     0.0780843674158894       10.000052087015762+0.003512396437027948i
-0.023022528751605736     -0.09731373577189135     10.000052087015655+0.003512401148041517i
-0.028807793426275655     -0.07476133279750481     10.000052087015858+0.003512400541939038i
-0.011041741974707857     -0.08255348451224674     10.000052087015801+0.003512400751254062i
0                         -0.1                     10.000052087015636+0.0035124012200590444i
0.008955078750616078      -0.07969284863388615     10.000052087015815+0.0035124006744225397i
0.023021759304243883      -0.09731391780489294     10.000052087015606+0.0035124011480518864i
-0.043833355584700855     0.06620296863974261      10.000052087015932+0.003512396756237861i
-0.0438150945176857       0.0898901412414413       10.000052087015748+0.0035123961197967104i
-0.02781013063358238      0.0774042255064618       10.000052087015915+0.00351239645534407i
-0.023021759304243883     0.09731391780489294      10.000052087015767+0.003512395920127485i
0.02689085047535659       -0.07912932225465784     10.000052087015787+0.0035124006592709713i
0.0438150945176857        -0.0898901412414413      10.000052087015598+0.003512400948506704i
0.062472646536387344      -0.0780843674158894      10.000052087015586+0.0035124006312474607i
0.03974935762122233       -0.0687798882978241      10.000052087015815+0.0035124003812627854i
0                         0.1                      10.000052087015757+0.0035123958480537012i
-0.008771284023117597     0.07856526860569406      10.000052087015938+0.0035123964241109778i
0.010058257003587444      0.08342293264067518      10.000052087015886+0.0035123962936644084i
0.023022528751605736      0.09731373577189135      10.00005208701572+0.0035123959203459346i
0.043814879914886674      0.08989024584483046      10.000052087015707+0.003512396119832685i
0.02718407321736742       0.07497207255902334      10.00005208701591+0.0035123965206875205i
0.04526737166538476       0.07101410618995349      10.00005208701586+0.00351239662705373i
0.06247245590538912       0.07808451993288563      10.000052087015703+0.003512396437057473i
0.05604370651782325       0.056098343199111805     10.00005208701589+0.0035123970276772667i
0.0780843674158894        0.062472646536387344     10.000052087015689+0.0035123968565136682i
0.07034806760624257       0.043578658849091276     10.000052087015844+0.0035123973639408883i
0.0898901412414413        0.0438150945176857       10.000052087015682+0.003512397357682022i
0.07808451993288563       -0.06247245590538912     10.000052087015598+0.003512400211772781i
0.05586676763140358       -0.05722451761589651     10.000052087015812+0.0035124000708603195i
0.09731391780489294       0.023021759304243883     10.000052087015693+0.0035123979160406158i
0.07444297045927654       0.026340026039710904     10.000052087015868+0.003512397826846284i
0.08222481734558168       0.006713862554193483     10.000052087015835+0.0035123983538542514i
0.1                       0                        10.000052087015677+0.0035123985342529283i
0.09731373577189135       -0.023022528751605736    10.000052087015645+0.0035123991521287777i
0.0802405789013957        -0.0123035544999216      10.000052087015836+0.0035123988645528706i
0.06842195598000522       -0.04282355218557024     10.000052087015812+0.0035123996840807008i
0.08989024584483046       -0.043814879914886674    10.000052087015616+0.0035123997105583767i
0.07945828958884983       -0.029014241803555187    10.000052087015796+0.0035123993132405184i
-7.617481969205135        -4.599795824742202       7.354530604155913+2.186727528767373E-4i
-8                        -4.411764705882353       7.395429167286952+2.192872634902025E-4i
-8                        -5                       7.352775832893892+2.1864212979673278E-4i
-7.407407407407416        -5                       7.309373767870288+2.1797596379071683E-4i
-7.568989253557476        -4.104004262156599       7.429050798511331+2.198127637796325E-4i
-8                        -3.823529411764707       7.522655214367636+2.2115248875554188E-4i
-7.1110131850607825       -4.483210155672055       7.288448576308858+2.1768530812105185E-4i
-6.814814814814824        -5                       7.178473270922091+2.1590390616140517E-4i
-7.537861788177438        -3.532315787535566       7.59141050206332+2.2219829418110827E-4i
-8                        -3.2352941176470598      7.732082852640673+2.2402985584016918E-4i
-7.098715959019531        -3.8299982718883276      7.4235891246957175+2.1989082026001178E-4i
-2.103415271294287        -1.7355461520994593      2.5481604509736147+1.6982149550554744E-4i
-2.043445525297691        -1.827720137529849       1.6990502295466021+1.1352475743208605E-4i
-1.9955068013505064       -1.7260845081909546      2.1801678309558663+1.5952445571108047E-4i
-2.132253521175323        -1.816625789895118       2.2576879114795525+1.412281914544425E-4i
-2.108351239382444        -1.902098270728308       1.6753590837735033+1.0027700295148341E-4i
-2.2035257140064393       -1.8611783264444064      2.4681515533046237+1.4371053304930477E-4i
-2.1742331504369874       -1.951144787684148       1.9888880480438054+1.1036150978432414E-4i
-1.8790163378084341       -1.7156925398360487      1.9186304566348447+1.5651642565557764E-4i
-1.9481325059924641       -1.6091358200364712      2.7615779097212365+2.1742777513996555E-4i
-1.8336486774561855       -1.5823480736904099      2.6720144917541795+2.3226244418237223E-4i
-6.676950568439604        -4.09497140493427        7.239953224083122+2.171261195327412E-4i
-6.5034145823487055       -4.52780789789533        7.1027702736561364+2.147476230266966E-4i
-6.22222222222223         -5                       6.958288683790499+2.1221403423937843E-4i
-7.519088379161485        -2.950440723926069       7.836742444411428+2.2553054524063806E-4i
-8                        -2.647058823529412       8.019190649457226+2.2757879125121435E-4i
-7.043151343128878        -3.2453438712591107      7.623816217248607+2.230294502662597E-4i
-2.2044770800897617       -1.7512852050613332      2.918899619275383+1.8007915687138015E-4i
-2.308821448976307        -1.7962468615952556      3.214726616265106+1.8334945991053017E-4i
-2.069168969243811        -1.6256295143582824      3.0159285010687387+2.148348898937419E-4i
-2.178113213573404        -1.6340429853645793      3.3407048130210346+2.1957204894642278E-4i
-2.024601080251321        -1.5278081744814336      3.406185676296853+2.5729185565484314E-4i
-1.9262141707251035       -1.4776634290569655      3.4484688630779092+2.8319998044878036E-4i
-1.7014550734882918       -1.5566708473036903      2.618530251774528+2.541105765736238E-4i
-1.7908826100222401       -1.4279537984107704      3.4789357541351777+3.1877346686575754E-4i
-0.24183000055530499      -0.05295522183052777     9.907808836121658+0.003221797276679734i
-0.2825186163395505       -0.030817045456216732    9.922051237014495+0.0030343380403079303i
-0.269372526057573        -0.08077456762927632     9.799928323920327+0.003047926304595423i
-0.3128612238622501       -0.06706390747960553     9.795336657741343+0.0028729888999990657i
-1.5475151999429335       -1.5430454341042372      2.5328949825267624+2.7739938595700437E-4i
-1.6158354260782035       -1.3896798500011174      3.465288488833378+3.634065190535171E-4i
-6.519944654282603        -3.5558270666109295      7.348659501682184+2.1933598872059758E-4i
-2.2930178439778155       -1.9496690437022715      2.7164559316520616+1.4443443451723839E-4i
-2.198997283401753        -2.0392286910470903      2.0197097674795974+1.0420023099594603E-4i
-2.4356551288421633       -1.8480701837915736      3.596936607787302+1.9003450801749524E-4i
-1.9344882828222516       -1.836582299783143       1.1537253847511015+8.619075039207785E-5i
-2                        -1.95                    0
-2.0989680336136          -1.9987302125361828      1.2640303132870103+6.894252341705202E-5i
-2.1143025806659588       -2.0964697485593624      1.439720793665334+7.152045898047044E-5i
-1.757166532584985        -1.701063394477055       1.7967289272115121+1.6389618610026648E-4i
-1.6265078629304535       -1.6937575851430946      1.6948427542133289+1.7282867830984564E-4i
-1.4875430527509512       -1.7016219506632555      1.545536486973403+1.7591540262945182E-4i
-1.4066339526139071       -1.5899702767033408      2.1590918928958516+2.620502421146069E-4i
-1.8150210531906703       -1.8326153205598839      0.9457455864905541+8.037659213979032E-5i
-1.3332543962403594       -1.700533777338563       1.480751202333794+1.8881104089810857E-4i
-6.1954554120760505       -4.0608830791983666      7.061513661285638+2.1445523639306016E-4i
-5.9174094853454555       -4.528803583512257       6.83877722041986+2.1026482613532429E-4i
-5.629629629629637        -5                       6.646660267413484+2.0655837495140304E-4i
-7.518409648733784        -2.358297117352814       8.164309659717604+2.2944102295807269E-4i
-8                        -2.0588235294117663      8.376688349319274+2.3134797848746075E-4i
-7.032278150160747        -2.6551445272457523      7.917933984443912+2.2719011744348882E-4i
-6.538847383670837        -2.9429843489962373      7.629986999694339+2.241327494159331E-4i
-6.113749968614284        -3.1827233752645436      7.343989544810102+2.204735994677831E-4i
-2.3020237312389042       -1.6485640858193091      3.7154811534256367+2.2513754603395157E-4i
-2.4057619925323492       -1.7111385649417912      3.8662430772878134+2.1733945448762417E-4i
-2.5448726660363032       -1.7082840064895817      4.335283916170638+2.2929439972442232E-4i
-2.1306940681933098       -1.5116395907000602      3.766616212114005+2.646154184671648E-4i
-2.2693181145066306       -1.5098452088401642      4.160876422612474+2.6730475552428056E-4i
-1.7403026502058772       -1.23482678069208        4.4238954898056235+4.262349620526941E-4i
-2.0453157947309215       -1.406469398645222       4.063185972512635+3.0917933429873266E-4i
-1.9147043558974877       -1.3122653090774863      4.279731191817743+3.6163777694317244E-4i
-0.34457749467963594      -0.013741342039386978    9.95446141099964+0.0027722804705104876i
-0.2863031985163553       0.01792878178260534      10.046321121356895+0.003021760152147527i
-0.2479519575487239       -0.12768728168123564     9.6887688107777+0.003057919527916545i
-0.30917214730665793      -0.119002517565122       9.620985931490644+0.002824463835375522i
-0.3748029627264978       -0.08982224224517106     9.671645755557618+0.002620826438366963i
-0.4145387952382994       -0.015059987481498362    9.942320479829016+0.002523243600792887i
-0.47271444377292304      -0.08060510743141822     9.667854738840548+0.0023279638663652566i
-0.4782486895564626       -0.0017446278898454806   9.992908775106471+0.002332622487414995i
-1.5273729645976155       -1.18679807756917        4.458297883314041+5.014997207721227E-4i
-1.4026076418732196       -1.4094440974404496      3.175545084912542+3.8876794422722423E-4i
-1.2704359227865185       -1.550436211633779       2.316000458168921+3.0957077366132083E-4i
-1.2009477227623337       -1.6920653572969186      1.4878627155602917+2.0759795014474534E-4i
-5.9252521815091805       -3.606735016881874       7.071454176482377+2.1554859417882515E-4i
-2.4378664506054535       -2.0012651821140963      3.302387777010285+1.6407232456361285E-4i
-2.2097447257258205       -2.1402723177954552      2.08397561356853+1.007480256798944E-4i
-2.1344988264167197       -2.1822265463637742      1.7180621629943609+8.09516599477208E-5i
-2.3158727121986984       -2.078951516741306       2.655214711711164+1.310169943925548E-4i
-2.620777021445263        -1.910705847462847       4.123614379296634+2.003813895271017E-4i
-1.8888416738200915       -1.9499999999999997      0
-2.204577828280293        -2.2484316272536313      2.1520588942049588+9.865889926222167E-5i
-2.10062657168254         -2.257575628494126       1.7106416550197407+7.747508976859769E-5i
-2                        -2.05                    0
-2.046548335607925        -2.170356153309678       1.2165898946558766+5.676338339157805E-5i
-1.6873501906358765       -1.8252960003292025      0.8786525368281078+8.431741214022828E-5i
-1.5505826252802593       -1.8243126545711978      0.8128354252820742+8.765123474817648E-5i
-1.4085014409293055       -1.8252003912916346      0.7620213855130075+9.177362758542147E-5i
-1.7577197014044759       -1.95                    0
-1.266908117065196        -1.823485302628321       0.7430729534120105+9.900359442621471E-5i
-1.127621828671668        -1.8231082436979362      0.7256683642134035+1.0589087575523666E-4i
-1.0626731057391061       -1.699484019442015       1.415067464831527+2.152306400949467E-4i
-5.622071543087627        -4.061607283953832       6.75923741968834+2.0949178020727497E-4i
-5.329573760446191        -4.528852519549517       6.482776331558186+2.036445560549975E-4i
-5.037037037037043        -5                       6.242643026977319+1.9849166788686798E-4i
-7.52050327436616         -1.7679728856368968      8.55847428434643+2.3332156422437941E-4i
-8                        -1.4705882352941193      8.79400641585896+2.3482058460225772E-4i
-7.037471963306144        -2.0664771598697294      8.289883157416883+2.3168833896467195E-4i
-5.6194457002067395       -3.133718690964597       7.113109729484152+2.1820208206550524E-4i
-6.536332243122383        -2.3662869925136705      7.971398108873089+2.2936979337786874E-4i
-5.98762794271612         -2.6525802610834184      7.582173571908697+2.257143501199451E-4i
-2.4369904903098476       -1.5523930672059434      4.48149635955244+2.594371424766832E-4i
-2.6057612083064177       -1.5516123389540224      4.940000084193484+2.639763091405428E-4i
-2.7642902440614656       -1.6757829095896835      5.024976568518093+2.4604208276245994E-4i
-2.1957397422842475       -1.3595320400134678      4.607091724631069+3.190643924368556E-4i
-2.372326247055965        -1.3528271481321004      5.028075345260548+3.1325756909974205E-4i
-1.683246687014657        -0.9925320906283867      5.557721366332154+5.580473012332517E-4i
-1.908401405810891        -1.091240695786359       5.3281821166010195+4.5725030163824837E-4i
-2.07915348953935         -1.2186514924435827      4.998025679214062+3.7965234380710487E-4i
-0.37811725467140456      0.038287743738996606     10.138556144730623+0.002640834135032696i
-0.3255280168923718       0.05556898266528723      10.176242093911462+0.0028304416970315114i
-0.26737299841105255      0.072654349732986        10.174528489064814+0.003068293735002011i
-0.5671218354035695       -0.03190137147191452     9.861163224522114+0.0021041917829133718i
-0.5203372052706837       0.04755479144536852      10.202211485384625+0.002214469833376282i
-0.44508930504208777      0.06337306052602004      10.253881854911684+0.002414590291833507i
-0.2151664626384633       -0.17444001626446984     9.580527874628013+0.003065422412719092i
-0.2747297275847299       -0.17605061583816134     9.448438993608086+0.002842428729167816i
-0.3508119136259299       -0.16754745398492088     9.382888097145957+0.002605940741947369i
-0.43722074148268886      -0.16306977462004008     9.334841736499435+0.002360949983400775i
-0.540772790375903        -0.14520418875593527     9.369423496190407+0.0021197627877294328i
-0.6442489396009783       -0.13320742508976602     9.400988109833916+0.0019090192282064484i
-1.4257981225725747       -0.9300505219941101      5.679728058889574+6.832399241326489E-4i
-1.2967425854455734       -1.1638637326914003      4.42428595771544+5.852783695591322E-4i
-1.1864205534763497       -1.3808440154660717      3.2167702033044168+4.5654600882260693E-4i
-1.1221469865749192       -1.5400241720446917      2.3195772870900595+3.41525503060239E-4i
-0.9811482543151167       -1.590892275699835       2.003022954576943+3.2025781477873304E-4i
-0.9086611729584856       -1.6961595895271246      1.410076211057765+2.3390156568327185E-4i
-5.331690591637107        -3.5884002880588155      6.723229602919761+2.1039466696128292E-4i
-5.047956593272735        -3.093495988559296       6.749223360632861+2.139702048142233E-4i
-2.88206292485942         -1.9254822688926527      4.836654999881582+2.1758883937158724E-4i
-2.5550398504563483       -2.092761100405282       3.629907587585749+1.696780812621414E-4i
-2.442356271275666        -2.1666938869734413      3.1492925353522483+1.4656798828429493E-4i
-2.3213778560904728       -2.2146652103053204      2.643112298388635+1.2249547015052314E-4i
-2.726013955432697        -2.1204920410471444      4.142585289107623+1.8534513520653115E-4i
-2.3005900050668675       -2.341928140172969       2.6101595222383547+1.1552302162343605E-4i
-2.180380162972811        -2.354917364848545       2.186364380693053+9.62081191877845E-5i
-2.077996930280164        -2.366967220066143       1.8513930381337793+8.049661775167689E-5i
-2.0013141579202207       -2.274201383632283       1.3681514653864755+6.049589674843442E-5i
-1.8888416738200915       -2.05                    0
-1.939575259125533        -2.1655830913182994      0.7470320901895134+3.3576362972268803E-5i
-1.6171055386819164       -1.95                    0
-1.4764876657530528       -1.95                    0
-1.3358697928241892       -1.9499999999999997      0
-0.9853001914903912       -1.823578677836544       0.7091983715639945+1.1258441714495041E-4i
-1.195251919895326        -1.95                    0
-1.0546340469664628       -1.95                    0
-0.8441895756727398       -1.8227082917504935      0.7045529747058731+1.2049204545577816E-4i
-5.033045980112118        -4.055976482150932       6.355950480317989+2.0212347381616798E-4i
-4.737399901404758        -4.529909952543881       6.031136184494044+1.9431708267149658E-4i
-4.44444444444445         -5                       5.749165521635902+1.8755995030555933E-4i
-7.522664705770968        -1.1784690170906695      9.006731433834267+2.3661983053827293E-4i
-8                        -0.8823529411764723      9.257177864735153+2.3748737320967092E-4i
-7.043818409098872        -1.474761007429833       8.728890389009281+2.3589750669519017E-4i
-6.565595151101111        -1.7723634107869355      8.408404549870342+2.348276803000011E-4i
-5.36435055071105         -2.6280493007902166      7.261896417716493+2.2403661946893093E-4i
-4.759562368806341        -2.5371190822421332      6.883699495172153+2.22478094753424E-4i
-6.081234835480203        -2.04918911602856        8.046908899139604+2.330244890138517E-4i
-5.630620573858755        -2.2155089785708846      7.720018725952163+2.3122973546074597E-4i
-7.522859087574403        -0.5888103367212633      9.493762064575279+2.3883954272556934E-4i
-8                        -0.29411764705882604     9.7492410318302+2.389361617364671E-4i
-2.5649627199410405       -1.378775317094452       5.3656814239718145+3.0080622353104614E-4i
-3.004348920525829        -1.708824069415675       5.504991276082123+2.4778295241406525E-4i
-3.2002051932268274       -1.9056391219714082      5.56301037762445+2.319150690669788E-4i
-2.76842907258714         -1.4192912037899652      5.678234871448638+2.888331023139039E-4i
-2.923779894669885        -1.506280632123037       5.772915232058943+2.737031704511527E-4i
-2.2783072470624584       -1.1592737434144011      5.588823268277969+3.754951039630087E-4i
-2.5033763622884817       -1.1427022235449555      6.032322370513058+3.5697836879600213E-4i
-1.1453831519485242       -0.16661437403913198     9.228965029723005+0.00120725608347422i
-1.3230941395233562       -0.016434535800234594    9.925284321594733+0.0010606965790441144i
-1.409439712963328        -0.33902295011137673     8.462713165280421+9.468633895851869E-4i
-1.5927323446381894       -0.6997699018347003      6.870595363280979+7.193193608960583E-4i
-1.9050489092456042       -0.8122918884560983      6.578376452385256+5.603680884764343E-4i
-2.12796032473546         -0.9768660352592371      6.1086438588875245+4.5276623987539354E-4i
-1.6469756703415956       -0.015470847050934981    9.932583076015812+8.34564438279007E-4i
-1.6130858733881697       0.28165028977179646      11.238190804964345+8.299624640230499E-4i
-1.8619790451859939       0.25433637700476686      11.063884046413474+7.06222416622413E-4i
-0.3728991064935107       0.10143176229043896      10.37171516098501+0.002616888930677507i
-0.3037631422236038       0.1168740231583325       10.364697511162193+0.002848497106033822i
-0.24604087843879024      0.12462664659101794      10.296602313072293+0.003073206164769537i
-0.6984994110001138       -0.004267116864755019    9.980767878493431+0.0018343678331642383i
-0.7763624171346803       -0.1338130559025393      9.384231848003568+0.0016773843377926709i
-0.8413252907775007       0.014691074818346533     10.06798161337059+0.0015971110836057844i
-0.9515845031745138       -0.1572534135230555      9.268895898647614+0.0014244052322611113i
-0.6023325596720952       0.07578712815141417      10.335441423926618+0.0020159498107561354i
-0.5088936366792033       0.1322597679111684       10.56393188315215+0.0022035586121113807i
-0.4243990869813588       0.15493926525518992      10.62280723404655+0.0024046543475786694i
-1.4142643574901301       0.1918540819064413       10.867203706726587+9.74290556499563E-4i
-1.0379100983694953       0.060961363708218426     10.283108918739993+0.0013369971386974731i
-1.1721072514506243       0.2274898545374879       11.052499428423737+0.0011679763945177583i
-0.17399191952083878      -0.21675127701745378     9.474214442188858+0.003058608894470219i
-1.2719557330208544       -0.6609137274316801      6.921480105759+9.109984351065643E-4i
-0.6931731371099658       -0.22873468708302286     8.953602545034615+0.001768967718461957i
-1.0583226019516327       -0.4000212482922113      8.12913284812221+0.0012129320114830225i
-0.8268577259418911       -0.2953882701566728      8.62488350009003+0.0015296985942755313i
-0.5958205892893428       -0.2453062259170043      8.898205395775621+0.0019289285389811623i
-0.23317155224708724      -0.2318859091307538      9.265679576070218+0.0028284291192278107i
-0.30554624685025195      -0.24277721838805003     9.101630057550322+0.0025957236746855807i
-0.39167509005353623      -0.24943910270234662     8.982621322465528+0.0023615503334075867i
-0.49081735389053155      -0.25029715229350835     8.91525141677444+0.0021340381048749486i
-1.1642676824186462       -0.9159753719116601      5.633696333344473+8.139636730777186E-4i
-1.06822118405365         -1.1668315319229934      4.313114212081666+6.635114859413049E-4i
-0.7051621669159317       -1.8237163764893456      0.6925475110964897+1.2625032078038474E-4i
-0.7785985733759144       -1.6927931195496668      1.4147286561406995+2.503796854317305E-4i
-0.9713008385529495       -1.4098994260738469      2.9894773169560334+4.8361789467289923E-4i
-0.8447900907382275       -1.5508010730635684      2.1990112954432757+3.787519087306321E-4i
-0.5633552002196539       -1.826285455516024       0.6741195176349613+1.2979943682616847E-4i