% Model:              VLR_3_01V03.mph
% Version:            COMSOL 5.5.0.292
% Date:               Jun 30 2020, 18:46
% Dimension:          2
% Nodes:              1769
% Expressions:        1
% Description:        Electric potential
% Length unit:        cm
% x                       y                        V2 (V)
-1                        0                        9.999747837897589
-1.1785568929029107       -0.07543550824644407     9.765872174420592
-0.9740025222279032       -0.22653716404529203     9.455623581988924
-0.9740027578737906       0.22653615087718337      10.543989955117944
-1.1712076347001084       0.16638769686322977      10.517735574191674
-0.8998922262026331       -0.43611234930929116     8.944374583398217
-1.123155532137247        -0.43357602274859297     8.602276251014978
-0.8998976938765575       0.4361010669049704       11.05522160905607
-1.105619949976765        0.4109515955637562       11.292969285997556
-0.7813136841792069       -0.6241385478516084      8.473674763300378
-1.0060379048401675       -0.6385487508390923      7.920293555654024
-0.9885843482991581       0.6321060735183399       12.021134166705108
-0.7813220565171604       0.6241280669860916       11.52594516106443
-0.8429412600848346       -0.8312593427210665      7.244582561789032
-0.624130034641003        -0.781320484730191       8.068743509231425
-0.8332053093938353       0.82751257771542         12.715151945920356
-0.6241412301444283       0.7813115414697264       11.930908820097182
-0.6493978180561822       -0.9888791146535341      6.6506788299741215
-0.43610259797142953      -0.8998969519020331      7.755545134989217
-0.4361161769620473       0.8998903712075201       12.24408575468398
-0.6414125727553859       0.9934501193914993       13.365082506110673
-0.4284745990907209       -1.101361435252854       6.212860064193511
-0.2265369793308362       -0.974002565189466       7.556258726803441
-0.22654213524659375      0.9740013659938648       12.443463243435515
-0.43446960686422825      1.1390990374924643       14.082233162408654
-0.17953143077892292      -1.2082067812343738      5.614954509120161
0                         -1                       7.485582062765322
0                         1                        12.51398639419382
-0.057093591587403326     1.1879139811869943       14.16906440358335
0.11719267503136331       -1.218488890241019       5.560500235454843
0.22653716404529203       -0.9740025222279032      7.556198139640368
0.2265419580012881        0.9740014072191797       12.443498869967707
0.1677218412099285        1.1677669796406867       14.045887193243898
0.3935360962680729        -1.1216037004496298      6.104668950069255
0.43611234930929116       -0.8998922262026331      7.755517436866769
0.4361064317544617        0.8998950939872886       12.244193276275361
0.40832452489250926       1.1101919801770028       13.826283007036297
0.6280342958770815        -0.9978853984117189      6.629347908765831
0.6241385478516084        -0.7813136841792069      8.068753877746675
0.6261476935282888        0.9854998654127018       13.282725077713723
0.6241327214526704        0.7813183384588405       11.930957709440696
0.8290645960907634        -0.8331929677678676      7.260727189372957
0.781320484730191         -0.624130034641003       8.473707587643064
0.8358270610179954        0.8366800668686687       12.77167223709341
0.7813152595867536        0.6241365757083013       11.525965807761674
0.8998929693801699        0.43611081580275035      11.055259304810745
1.0020979981203415        0.6386053776334644       12.073127846055009
0.9915001532101644        -0.6357151484693505      7.957237385556826
0.8998969519020331        -0.43610259797142953     8.944417375564589
0.9740027152373064        0.22653633419466038      10.544002910339174
1.119139377459986         0.44224831995938985      11.425665685492595
1.103636182213293         -0.4068154812210456      8.724078969630654
0.974002565189466         -0.2265369793308362      9.455646890835993
1                         0                        9.999874237215682
1.1827665186716938        0.07743443630230905      10.240890754773153
1.1705010931392128        -0.1638462493134085      9.49029703541879
-0.4201735260211338       -0.044888606967969154    9.841496210547234
-0.5                      0                        9.999860417264392
-0.48656958901289904      -0.11510879657010833     9.594806500948057
-0.39704723038244266      0.046443010239911625     10.163761112425476
-0.4865686788481499       0.11511264380582166      10.40477781517818
-0.3999496723586556       0.14159802793093873      10.49968689377616
-0.4494512291293839       0.2190743997688595       10.772114918609821
-0.4494507061124643       -0.21907547278280007     9.227490902876006
-0.37706840713104045      -0.13426425243931556     9.525522063309282
-0.36097876329558465      -0.22613436237435341     9.200231410226213
-0.39042183555636684      -0.31236323458562987     8.895558801809504
-0.3387197543746866       0.2093073439167747       10.740316147880213
-0.3904225949460233       0.31236228542449446      11.104074091957045
-0.289999098667745        0.2977345064198793       11.055117229765855
-0.31236323458562987      0.39042183555636684      11.38419501075308
-0.31236228542449446      -0.3904225949460233      8.615464070883059
-0.2860681397120547       -0.27916548126148544     9.010412314491766
-0.22658379255565483      -0.35462530356847166     8.740612580221224
-0.2190743997688595       -0.4494512291293839      8.401928581334264
-0.21907547278280007      0.4494507061124643       11.597730676846732
-0.2100665838276573       0.34300522286102625      11.218009477671458
-0.11511264380582166      -0.4865686788481499      8.266792821592745
-0.13567531472421782      -0.37295891806508197     8.673543416429323
-0.1371983811102289       0.40058646581533597      11.424755713724844
-0.11510879657010833      0.48656958901289904      11.73293306243428
-0.050654423850324495     -0.4126367876943561      8.530929038028479
0                         -0.5                     8.217809524360188
-0.04332627862696256      0.401440017246306        11.428769460902787
0                         0.5                      11.781944823276296
0.04435586120315895       -0.3977273112142072      8.584197287198519
0.11510879657010833       -0.48656958901289904     8.266790413008739
0.050623114512619326      0.4167252902148565       11.483371112199544
0.11511264380582166       0.4865686788481499       11.732837728560314
0.1335452691375571        0.3749655290343442       11.33331648971196
0.2190743997688595        0.4494512291293839       11.597724496027658
0.1354529768057275        -0.39535681603317097     8.593571729099258
0.21907547278280007       -0.4494507061124643      8.401934042097581
0.2203562420457842        0.3508071650470407       11.245589022171542
0.31236228542449446       0.3904225949460233       11.384198604381657
0.31236323458562987       -0.39042183555636684     8.615474807068212
0.19838496270507153       -0.34654786025781825     8.76880502626703
0.2768673065383102        0.2781670589214044       10.985913116240537
0.39042183555636684       0.31236323458562987      11.10409788608437
0.3500744984340781        0.2131225078855333       10.753601870277375
0.4494507061124643        0.21907547278280007      10.772161235154856
0.48656958901289904       0.11510879657010833      10.40484061205338
0.373626824184524         0.12205154078574453      10.431025425310246
0.3904225949460233        -0.31236228542449446     8.8955804187036
0.2797270408789609        -0.2903000959284411      8.970718115870753
0.3436019409642757        -0.22158666252552534     9.21595200255918
0.4494512291293839        -0.2190743997688595      9.22753472039576
0.4110437767117595        0.02949550221492875      10.10389529823982
0.5                       0                        9.999789747355239
0.3944537675017814        -0.15080897161828727     9.467342229688132
0.4865686788481499        -0.11511264380582166     9.594877908199118
0.40158245080937577       -0.06452969749996143     9.772083604646896
-7.616022971167956        -4.601836978431554       7.3663297634322635
-8                        -4.411764705882353       7.407415358344941
-8                        -5                       7.364918850578911
-7.407407407407416        -5                       7.3216747306059515
-7.561694263371574        -4.114210030603361       7.437918223149843
-8                        -3.823529411764707       7.534158222113895
-7.538905553585199        -3.5346849537630654      7.601929067981655
-8                        -3.2352941176470598      7.74275033489054
-7.1110131850607825       -4.483210155672055       7.300832850825351
-6.814814814814824        -5                       7.19123481428051
-7.522128128874506        -2.9508656822490567      7.847110155456867
-8                        -2.647058823529412       8.028633999980153
-2.148597629396302        -1.801344884923737       2.4776089508997754
-2.111881671632736        -1.7128365508302896      2.779068146773066
-2.2398247131987112       -1.7212403199443325      3.264786993019663
-7.101758354462945        -3.8332104880823823      7.435235477599833
-7.047852574802162        -3.250999992231831       7.633599256973078
-2.224513819918016        -1.8549965494895633      2.6564809381700187
-2.3456910297756375       -1.800711690577835       3.416525340085435
-2.048882519167909        -1.8193416128892514      1.835560091982763
-2.1179047576646823       -1.8973411761022634      1.807031016052111
-2.1918226977267157       -1.9498302246650052      2.150042368514282
-6.678589572469782        -4.093891724092163       7.253338966213837
-6.503582986825411        -4.527553342640779       7.115903050029004
-6.22222222222223         -5                       6.971773564588748
-2.3903149219406887       -1.6425834517867257      4.109183955958806
-2.2838213513424064       -1.58742154270243        3.9780828865840276
-7.0338785248498406       -2.6538037130963983      7.929052837599357
-6.5402440731559475       -2.9334171814836028      7.646848141813166
-7.519126657534923        -2.3577240648106748      8.173558450240735
-8                        -2.0588235294117663      8.384493570085796
-2.174903830731995        -1.601151373440903       3.572670570828141
-1.9972836382512393       -1.7195190028048992      2.3055797689569197
-2.0630333476902067       -1.6101344126507666      3.1783048167028594
-6.525554248525422        -3.5599420491446647      7.361456005485854
-2.470143855179597        -1.741082959692135       4.064056416374022
-6.112674577952182        -3.172892340956658       7.360887200218113
-2.467037004751915        -1.870615467477262       3.7165532764153553
-2.3039130042408456       -1.9578334449782784      2.7982178786631557
-2.2128215040017474       -2.0393220371323992      2.1392332213842304
-1.9378548584944228       -1.8309073367206095      1.2570194932657126
-2                        -1.95                    0
-2.1068016311836324       -1.9973323369036466      1.3634463574012257
-2.1206778463207994       -2.0975606169679826      1.5063519069777163
-6.192605493147012        -4.063698172546164       7.0728213960327695
-5.925449900475405        -4.526926466460383       6.8571229215235405
-5.629629629629637        -5                       6.661054024600786
-2.2440296757516838       -1.4760996730035183      4.334228935368414
-2.370033615088954        -1.496032895336672       4.582129986988872
-2.5597056939311402       -1.6125819327135082      4.710121056509677
-2.480910713960567        -1.5154398746491236      4.802957089378485
-5.9878574950905925       -2.6507361875972792      7.595510312747783
-6.536260480124803        -2.3643052621693843      7.982761422997759
-7.0376592346066875       -2.065510095633842       8.298974598443793
-7.520537106270423        -1.7674239892315942      8.565842488118063
-8                        -1.4705882352941193      8.799765604622486
-1.8169286616812501       -1.8296989959639878      1.0189345976234059
-1.8807065547985977       -1.711325987575937       2.039419310376385
-2.120301153032409        -1.4940560291790768      3.9371091053895775
-1.9498021072568796       -1.6046194799823257      2.9044983920671625
-2.017461297677229        -1.5192515633191235      3.557099092396488
-5.9234767037782685       -3.603814954565786       7.085114459957974
-2.594023290102852        -1.77214511448472        4.383974454533711
-2.7205825249602023       -1.6361660446518302      5.067373467300897
-5.624349146492755        -3.123817445641354       7.134936191207093
-2.6087848616840312       -1.9262324419866677      4.1030389330609855
-2.459943263293657        -2.017193114621444       3.4097276194440513
-2.2206840677063373       -2.1436528095843372      2.1703880786560745
-2.138081992831395        -2.1844913776683956      1.7601776103691003
-2.3348633615244916       -2.08912977235267        2.773006204679611
-1.8888416738200915       -1.9499999999999997      0
-2                        -2.05                    0
-2.046587336893352        -2.1707654348918326      1.231760074318352
-1.7577197014044759       -1.95                    0
-1.6866349074047924       -1.824806198408246       0.9396399120560907
-5.623909429784752        -4.059347183324516       6.775229632508013
-5.335895001611226        -4.527762935075681       6.50211363535719
-5.037037037037043        -5                       6.2580009760792095
-2.186926519513567        -1.350828593368183       4.751461496933133
-2.3369862986069148       -1.3161899386396168      5.198005411756831
-2.4761083819023653       -1.3926775627159727      5.209108435865
-2.6415822310509904       -1.4388857309384993      5.4236747598405755
-2.8282673064625206       -1.495256957826467       5.663612359451652
-5.3549817784645235       -2.647703698999753       7.256610012211593
-5.628966495399709        -2.2233731881933707      7.725245949629404
-6.07858398640456         -2.047912878638054       8.05714699680591
-7.5228517419784815       -1.1779407935932462      9.011869633437193
-8                        -0.8823529411764723      9.260538753928293
-6.565061804721928        -1.7708371762463315      8.417578305969942
-7.043585003502434        -1.4739572166459152      8.735755461732955
-1.756485039013041        -1.699534195088866       1.9105782983064403
-1.8333659271905955       -1.5783994919330362      2.8316878104326917
-2.0380861649471322       -1.4027487555945277      4.209266267316187
-1.9225538844041026       -1.4750079309789812      3.6050085901591626
-1.5499800882081727       -1.8242386308411653      0.8823471885466053
-1.6223404525771048       -1.6938334879547319      1.8171879438308454
-1.408799613225151        -1.825189006990768       0.8445315722929125
-1.4885150434944854       -1.7015962083483622      1.6924377229084246
-2.072355117733146        -1.2582342958908594      4.966422583683524
-5.330847125273208        -3.582497597657168       6.7398238644172865
-2.7634759947258294       -1.8133142504450084      4.778484614489188
-2.9364406334878814       -1.68481228150278        5.456026918339547
-2.747838275413466        -1.9929686350919846      4.415133361156823
-5.0362571983977515       -3.085259894071481       6.7605011680360745
-4.7522344110968975       -2.542025502814745       6.890643305191424
-2.211705430402061        -2.250672322207124       2.2079132221832904
-2.1024407801288074       -2.2630033671735212      1.7468495562070487
-2.6203913418164677       -2.091158069799588       3.890531907329894
-2.4756148351941305       -2.161933459751806       3.3127457446671866
-2.3381423094668166       -2.2144367941045884      2.7420198917680563
-1.8888416738200915       -2.05                    0
-1.939186036974212        -2.1661924675419035      0.7556207397948548
-1.997655477181978        -2.276860043103074       1.3759985359808609
-1.6171055386819164       -1.95                    0
-1.4764876657530528       -1.95                    0
-1.3358697928241892       -1.9499999999999997      0
-5.0364171350863876       -4.0513733388402         6.37521306901965
-4.740750805286361        -4.525487580230017       6.050347728566121
-4.44444444444445         -5                       5.765353320761304
-7.522804152476271        -0.5890454687478186      9.495683675627246
-8                        -0.29411764705882604     9.749962143115251
-2.2512006797268564       -1.1276416678277847      5.802585440127344
-2.551029050804402        -1.1968393740159513      6.01990943065993
-2.8308404484640595       -1.2910383139130766      6.207608155733319
-2.828733244203326        -1.0077356257381433      7.006860345088184
-3.0368842567951484       -1.4407327824532894      6.184397231784012
-3.2252908495845936       -1.7117260098384157      5.9658976516420035
-4.713816544046338        -2.122041623262717       7.223228443146874
-4.3581955416471505       -2.1600222264487137      6.869413395777019
-5.118914156368538        -2.080374058123497       7.55408946378355
-5.6059309927843275       -1.7373081113328808      8.128668958415348
-6.0871007728409925       -1.4656644825317653      8.547193973358285
-7.045673184447102        -0.8839173476775332      9.22066358642894
-6.566959093813705        -1.17881981650696        8.907817637940795
-1.195251919895326        -1.95                    0
-1.2661691998829891       -1.8240793266739486      0.8388647805968233
-1.0546340469664628       -1.95                    0
-1.125582379834066        -1.8258586986494878      0.8257794490255169
-1.3357763378359282       -1.7012187288569842      1.6559643153850272
-1.699184272865617        -1.5589570929194934      2.771566818766107
-1.791463704805337        -1.4209522650526143      3.710988994061489
-1.9158348658249158       -1.310371770515641       4.477558920877576
-1.5461830755388715       -1.5479862167636547      2.7160164373866773
-1.4097541725465272       -1.5958369118513314      2.3541540092304523
-1.9762733263036494       -1.1007218501090932      5.570104334800668
-1.4180646037500115       -0.15186259615865344     9.454830564997032
-1.419753632860351        0.07905736725019337      10.282546804813649
-4.74067332302724         -3.5713727741512526      6.2877458197044644
-2.985615126898292        -1.9623385150645365      5.0666897717109665
-2.806248421598345        -2.1709354912161114      4.346632588863719
-3.399432829144132        -2.0872853765581594      5.709948286764983
-4.135679930646257        -2.6298644804888127      6.212825233976299
-3.8491218021037286       -2.1791580262748416      6.273362462798503
-4.452403486413738        -3.084090966549864       6.250846085896895
-2.316532367506495        -2.3379148836681276      2.6898158452234404
-2.189089178452555        -2.3600865950916363      2.244074701347225
-2.075142488210708        -2.3710362611863993      1.8658722761050723
-2.6289823115372615       -2.2750829093928155      3.7504141364569397
-2.4754951308037194       -2.31503855219612        3.2442726529150208
-2.3973486305506007       -2.426003143780787       2.995991724591565
-1.7577197014044725       -2.05                    0
-1.819808963706177        -2.166896579102557       0.5185142351963411
-1.688682285515012        -2.1674687162332034      0.3971633643288574
-1.6171055386818856       -2.05                    0
-1.88417886724541         -2.2818948442800653      1.0686489190709632
-1.9537654890638252       -2.383646489790776       1.53228494769154
-1.5490865783038372       -2.1675303118182088      0.3235489505000762
-1.4764876657530244       -2.05                    0
-4.442636139901992        -4.0539507139820605      5.869226735346589
-4.146137168013116        -4.529838012418363       5.50875349913776
-3.8518518518518565       -5                       5.193755310820481
-7.522880759196325        -5.822480979341405E-4    9.999066859341271
-8                        0.2941176470588207       10.249174272541028
-7.045855891385254        -0.2953148380328393      9.735722478211036
-2.1141444352536762       -0.8391545086930003      6.824489202588356
-1.5751804549922217       -0.29974078724036973     8.872183391171887
-1.684162769850364        -0.048380021635812266    9.81814350947698
-1.8337213519134512       -0.3285804883944376      8.752285712433222
-2.520673863483769        -0.8318896193570245      7.21945361619329
-2.911537529310335        -0.6804298439121363      8.033360842775393
-3.098546601467972        -1.1667794125061088      6.926985819750009
-3.0829187029762544       -0.9030407343868639      7.574708763316822
-3.6278931142973176       -1.718157619054904       6.5730455812638775
-3.368765971881931        -1.3773059944252957      6.820349995594708
-4.0976712688579635       -1.7235696725746898      7.1135456597027575
-4.6678647874877495       -1.7162396669103321      7.613820442747253
-5.142865056425695        -1.4737802202286887      8.174974398878364
-5.614941076073151        -1.1756770744750156      8.68443770346512
-6.0911335707723735       -0.8834325746514796      9.097462086423336
-6.568559554294759        -0.5898865311896354      9.441307030097668
-1.628428428704098        0.2672649180258723       11.008035721213668
-1.349312574586833        0.3572165757346898       11.281732491223826
-0.9842263254054174       -1.8287604714005021      0.8129666248218993
-0.9140161740375993       -1.95                    0
-1.195735155683276        -1.6922095255464504      1.7055132753583049
-1.0561406214016595       -1.707193630972005       1.6152554911694892
-1.2771873783583994       -1.5560619168269958      2.585544984147836
-1.6161669434132775       -1.387521944474302       3.7352540704171573
-1.7619268775732235       -1.2152714437164662      4.800379744783313
-1.4034352650796038       -1.4209208000996378      3.4416262656436354
-1.2148631329567927       -0.26084728874676216     9.143764902079491
-1.759456753812341        -0.9098755681609653      6.296349377025251
-1.9564430500842218       -0.5885822655544981      7.750614832167423
-1.6103303013664367       -0.5863687237790884      7.710066777797492
-1.3625505965447187       -0.398221748974979       8.553276074440655
-4.146896549418041        -3.5830279241726832      5.710324441163899
-3.064475129779669        -2.324351606881062       4.810035957468336
-2.7901883441449153       -2.379713211066684       4.1294877781628285
-3.4664650576163267       -2.6325968530421995      5.304295225095857
-3.8538754100193926       -3.1289798333026906      5.560473057475613
-2.2874135253632155       -2.4612518946285107      2.6694405047440366
-2.148359697419643        -2.478722700650597       2.2646466880299774
-2.0359044525498096       -2.4647760127409954      1.9232429308444519
-2.585473382936736        -2.493523917454935       3.547600933685974
-2.3954611460938553       -2.553326978297945       3.035682024764078
-1.7612371236361886       -2.2863834421821627      0.8552518771605024
-1.6271491870776131       -2.284206175595705       0.6921850151095433
-1.8335857085274705       -2.4111120823085734      1.3255372589652514
-1.932322298316715        -2.5213121979402446      1.7725324548803076
-1.4085867990321435       -2.1756257470411895      0.2951441855655886
-1.3358697928241634       -2.05                    0
-1.2694283517145308       -2.177519608035856       0.2644628129131981
-1.1952519198953024       -2.05                    0
-1.1268449189939171       -2.176328495788327       0.23603954972366462
-1.0546340469664415       -2.05                    0
-1.477714398525912        -2.2962942842028586      0.6080329734589619
-0.9140161740375805       -2.05                    0
-0.9835668464825753       -2.1796015058336753      0.222074885202264
-0.7733983011087195       -2.05                    0
-0.8432628665175949       -2.1815195788910806      0.2101466827555071
-3.8459179368642404       -4.062442408952302       5.263126890395951
-3.551963169017368        -4.532560011886641       4.8935540440293375
-3.259259259259263        -5                       4.566876963698907
-7.523055150668044        0.5875779719972474       10.502207934178587
-8                        0.8823529411764666       10.738598333219267
-7.046155606809877        0.2930155419339337       10.261357689798354
-6.569181962824466        -0.0015046228846034894   9.998132523151314
-7.523162895883435        1.1754051722444652       10.985239005934929
-8                        1.4705882352941124       11.199372324381756
-2.3125665358532004       -0.5312030942353188      8.124866540411299
-2.108438922306229        -0.33631121006417886     8.765749208233343
-2.0293910546601692       -0.06773784297293248     9.749590566539664
-1.8942304894989808       0.17876623172137773      10.670872612261837
-2.675505569234584        -0.4402232210768374      8.613040014006094
-3.0526796042064115       -0.39166595130959825     8.923435585414682
-3.2490268263720896       -0.6845572269256313      8.266900406913694
-3.3969048252481886       -0.9965395047205579      7.656399605759213
-3.8270761838983662       -1.2299006379784987      7.602487987855967
-4.302454352973385        -1.3358950517511692      7.8291423458299985
-4.697682548755097        -1.1492915596439124      8.336225551881725
-5.145323640801082        -0.8997947576451389      8.843955334839487
-5.616681417561893        -0.5942168191609769      9.317928598488722
-6.092559510049744        -0.2963307240445239      9.6922568106708
-1.8927079204884096       0.4656448038411025       11.775986617459564
-1.5304225097952187       0.5713627607688045       12.214148105757388
-1.2370541393202215       0.6205652481638393       12.278238261952568
-0.7733983011087356       -1.9499999999999997      0
-0.8429440646443768       -1.8282340987245496      0.8282569125896991
-0.9112964839526804       -1.7102749079161526      1.615455051229094
-1.1168294848717637       -1.567950929293493       2.517155341702269
-0.9829475821312849       -1.6099864157608987      2.268008390700917
-1.1896169265155516       -1.4204777666539705      3.440128001781716
-1.4805250173132567       -1.1589490011092978      4.962317980688643
-1.2634207492409557       -1.2783171847428583      4.288705473434104
-1.4190883863415444       -0.8669415014819379      6.471756856531056
-1.2815868100512677       -0.641188834576141       7.595246945325267
-0.6327804281798723       -1.95                    0
-0.7019342612418987       -1.8271784246507006      0.8505069540028817
-3.5458729773467463       -3.597330945107071       5.007817939194795
-2.9040446882156736       -2.6944782041823006      4.245205292345474
-3.238489717800583        -3.133847546737837       4.701597767546823
-2.239233404156059        -2.6241302086291567      2.6658789387567334
-2.0692355433795537       -2.5991715125361505      2.2162083479116514
-2.4678367874626663       -2.7617257269963376      3.2903072749418487
-1.6948093287089196       -2.4275793655474827      1.1351119424767087
-1.561963610855709        -2.3978766093911448      0.9099910638069165
-1.785977247389827        -2.5527583673526566      1.5468827389547197
-1.9133604376591733       -2.693831860034249       2.0177250139380654
-1.3429340070713933       -2.3124102781902143      0.568738887108884
-1.2060144542974807       -2.3015410466295796      0.49076126058416314
-1.0492172529640882       -2.303829253973724       0.447473145799175
-1.428784679649231        -2.454095204441085       0.9120605422644568
-0.6327804281798586       -2.05                    0
-0.7027668117982634       -2.1809583945049904      0.19763321975006584
-0.9134250315356313       -2.3160504683146175      0.4358451797415421
-0.7724044897970543       -2.31300445975481        0.40497204030893624
-0.4921625552509976       -2.05                    0
-0.5621787202815526       -2.180259196955298       0.18781439174188916
-0.35154468232213665      -2.05                    0
-0.4211185860080928       -2.177223026825042       0.17714795548726395
-3.2484894021709976       -4.066277966445187       4.578548117349494
-2.961221868151385        -4.533637169110674       4.23966784597856
-2.6666666666666696       -5                       3.9252556185576704
-7.522963202271768        1.762749552163857        11.42977684108911
-8                        2.0588235294117583       11.614645332370111
-7.522829013096772        2.3472057522361873       11.818812636045378
-8                        2.647058823529404        11.970505650947286
-7.046594221399443        0.8808838139372372       10.775807317991339
-6.569722125733271        0.5869230419702727       10.554962796811763
-6.0923069426225505       0.29254911710293113      10.302982734674956
-7.046968830877828        1.4677690283659421       11.258090688102827
-2.252691028946069        1.2103343035242289       14.53075870827234
-2.049964761535171        1.084791767742758        14.276065742657222
-2.12008013689472         1.3200053751578213       15.237330242174265
-2.419327299790867        -0.14897390573405597     9.49326955358413
-2.2364654946011244       0.2770523362695121       10.987709280871455
-2.1468779336386477       0.7118131376314965       12.645175726462837
-2.88612371601362         -0.057656727115910834    9.83082072226244
-2.353322333634551        0.9884122725847962       13.520602948659397
-3.3844958010478745       -0.38130429576156866     9.07754154985339
-3.2408181060741073       -0.12780900523421868     9.672013934102253
-3.71682784696121         -0.6310781466132499      8.667678687346951
-4.249257586785522        -0.8776242738920352      8.497399623285867
-4.678329868057149        -0.5924153874361099      9.111011425094746
-5.139607268903356        -0.30538957643032105     9.598860099429238
-5.61528433850594         -0.0034576286400021666   9.995561543282767
-2.2752850859828055       1.380887128821877        15.189989860032156
-1.955853394334501        1.2963903298055603       15.393861542071715
-2.135176906335478        1.4885545894191703       15.998026496581803
-2.268594935439688        1.5291386131254279       15.824118127519307
-1.989094939133645        1.45581400881193         16.161284398492423