% Model:              VLR_3_01V03.mph
% Version:            COMSOL 5.5.0.292
% Date:               Jun 30 2020, 18:43
% Dimension:          2
% Nodes:              1769
% Expressions:        1
% Description:        Electric potential
% Length unit:        cm
% x                       y                        V2 (V)
-1                        0                        9.999828398323832+0.0012968574472317384i
-1.1785568929029107       -0.07543550824644407     9.887215769384051+0.0011236412053219032i
-0.9740025222279032       -0.22653716404529203     9.999828398323794+0.0012968621041338586i
-0.9740027578737906       0.22653615087718337      9.999828398323825+0.0012968527888843045i
-1.1712076347001084       0.16638769686322977      10.251067737617667+0.0011203995044957048i
-0.8998922262026331       -0.43611234930929116     9.99982839832373+0.0012968664715948995i
-1.123155532137247        -0.43357602274859297     9.267017579860322+0.0010901348868136193i
-0.8998976938765575       0.4361010669049704       9.99982839832378+0.0012968484215875407i
-1.105619949976765        0.4109515955637562       10.629175974754835+0.0011135862421780154i
-0.7813136841792069       -0.6241385478516084      9.999828398323636+0.0012968704841482524i
-1.0060379048401675       -0.6385487508390923      8.923887140426698+0.0010840889184705188i
-0.9885843482991581       0.6321060735183399       10.9871390686583+0.0011023010441421237i
-0.7813220565171604       0.6241280669860916       9.999828398323722+0.0012968444088386076i
-0.8429412600848346       -0.8312593427210665      8.569080684227151+0.0010677899407682812i
-0.624130034641003        -0.781320484730191       9.99982839832354+0.0012968739331897764i
-0.8332053093938353       0.82751257771542         11.367604059735418+0.0010783200267635593i
-0.6241412301444283       0.7813115414697264       9.99982839832363+0.0012968409595125385i
-0.6493978180561822       -0.9888791146535341      8.22035563913195+0.0010420594765796212i
-0.43610259797142953      -0.8998969519020331      9.999828398323439+0.0012968766042899653i
-0.4361161769620473       0.8998903712075201       9.999828398323547+0.0012968382888647071i
-0.6414125727553859       0.9934501193914993       11.78666695875041+0.0010417000288418272i
-0.4284745990907209       -1.101361435252854       7.954139878460606+0.001019476602943011i
-0.2265369793308362       -0.974002565189466       9.999828398323382+0.001296878308277077i
-0.22654213524659375      0.9740013659938648       9.999828398323489+0.00129683658383934i
-0.43446960686422825      1.1390990374924643       12.441341109656841+9.664838805425786E-4i
-0.17953143077892292      -1.2082067812343738      7.3303908635844275+9.43540919973236E-4i
0                         -1                       9.999828398323356+0.0012968789141744649i
0                         1                        9.999828398323453+0.0012968359797252717i
-0.057093591587403326     1.1879139811869943       12.339809026134596+9.879676259927103E-4i
0.11719267503136331       -1.218488890241019       7.277016305781018+9.372640325210166E-4i
0.22653716404529203       -0.9740025222279032      9.999828398323379+0.0012968783090286772i
0.2265419580012881        0.9740014072191797       9.999828398323487+0.0012968365832921635i
0.1677218412099285        1.1677669796406867       12.200874316295655+0.0010053536050749782i
0.3935360962680729        -1.1216037004496298      7.846043568984135+0.0010064072648203132i
0.43611234930929116       -0.8998922262026331      9.999828398323453+0.0012968766046819373i
0.4361064317544617        0.8998950939872886       9.999828398323533+0.0012968382875422216i
0.40832452489250926       1.1101919801770028       12.076623034300434+0.001016070281501658i
0.6280342958770815        -0.9978853984117189      8.227367646732375+0.0010447772694397622i
0.6241385478516084        -0.7813136841792069      9.999828398323537+0.0012968739331619295i
0.6261476935282888        0.9854998654127018       11.660406242289987+0.0010602287655477585i
0.6241327214526704        0.7813183384588405       9.999828398323611+0.0012968409590276868i
0.8290645960907634        -0.8331929677678676      8.61399821286801+0.0010763934771570469i
0.781320484730191         -0.624130034641003       9.999828398323643+0.0012968704838814539i
0.8358270610179954        0.8366800668686687       11.43491149374731+0.0010682788604754851i
0.7813152595867536        0.6241365757083013       9.999828398323688+0.001296844408710075i
0.8998929693801699        0.43611081580275035      9.999828398323757+0.0012968484212928634i
1.0020979981203415        0.6386053776334644       11.06216007371003+0.0010872321898632018i
0.9915001532101644        -0.6357151484693505      8.987088655510378+0.0010976754613527737i
0.8998969519020331        -0.43610259797142953     9.999828398323743+0.0012968664712447767i
0.9740027152373064        0.22653633419466038      9.999828398323816+0.001296852788813121i
1.119139377459986         0.44224831995938985      10.746833638801094+0.0010900653231602914i
1.103636182213293         -0.4068154812210456      9.385831408975902+0.0011168480110050922i
0.974002565189466         -0.2265369793308362      9.999828398323817+0.0012968621039074594i
1                         0                        9.999828398323835+0.0012968574457627889i
1.1827665186716938        0.07743443630230905      10.117481893218796+0.0011198391062251071i
1.1705010931392128        -0.1638462493134085      9.753480882202787+0.0011213783876937668i
-0.4201735260211338       -0.044888606967969154    9.999828398324361+0.0012968589604285664i
-0.5                      0                        9.999828398324233+0.0012968574458481143i
-0.48656958901289904      -0.11510879657010833     9.99982839832422+0.0012968613190985682i
-0.39704723038244266      0.046443010239911625     9.999828398324391+0.0012968558786876129i
-0.4865686788481499       0.11511264380582166      9.999828398324217+0.0012968535746217976i
-0.3999496723586556       0.14159802793093873      9.999828398324343+0.0012968526664914473i
-0.4494512291293839       0.2190743997688595       9.9998283983242+0.0012968500619001003i
-0.4494507061124643       -0.21907547278280007     9.999828398324167+0.001296864831440873i
-0.37706840713104045      -0.13426425243931556     9.999828398324366+0.0012968619819295358i
-0.36097876329558465      -0.22613436237435341     9.999828398324288+0.0012968650925841156i
-0.39042183555636684      -0.31236323458562987     9.999828398324121+0.0012968680060243597i
-0.3387197543746866       0.2093073439167747       9.99982839832438+0.0012968503652449088i
-0.3904225949460233       0.31236228542449446      9.999828398324174+0.0012968468869902243i
-0.289999098667745        0.2977345064198793       9.999828398324334+0.0012968473544517185i
-0.31236323458562987      0.39042183555636684      9.999828398324162+0.0012968442070744807i
-0.31236228542449446      -0.3904225949460233      9.999828398324073+0.0012968706856125837i
-0.2860681397120547       -0.27916548126148544     9.999828398324302+0.0012968669083146618i
-0.22658379255565483      -0.35462530356847166     9.999828398324235+0.0012968694891445007i
-0.2190743997688595       -0.4494512291293839      9.999828398324032+0.0012968727293107345i
-0.21907547278280007      0.4494507061124643       9.999828398324125+0.0012968421634386215i
-0.2100665838276573       0.34300522286102625      9.99982839832434+0.0012968457959137041i
-0.11511264380582166      -0.4865686788481499      9.999828398323997+0.0012968740232744494i
-0.13567531472421782      -0.37295891806508197     9.999828398324253+0.0012968701313237406i
-0.1371983811102289       0.40058646581533597      9.999828398324293+0.001296843817816754i
-0.11510879657010833      0.48656958901289904      9.999828398324118+0.001296840868579683i
-0.050654423850324495     -0.4126367876943561      9.999828398324194+0.0012968714959101784i
0                         -0.5                     9.999828398323976+0.0012968744920195357i
-0.04332627862696256      0.401440017246306        9.999828398324327+0.0012968437789735133i
0                         0.5                      9.999828398324109+0.001296840399384807i
0.04435586120315895       -0.3977273112142072      9.999828398324224+0.0012968709863435807i
0.11510879657010833       -0.48656958901289904     9.999828398323984+0.001296874023290494i
0.050623114512619326      0.4167252902148565       9.999828398324295+0.0012968432567070428i
0.11511264380582166       0.4865686788481499       9.999828398324109+0.0012968408699221686i
0.1335452691375571        0.3749655290343442       9.999828398324352+0.0012968446925021963i
0.2190743997688595        0.4494512291293839       9.999828398324132+0.0012968421635361576i
0.1354529768057275        -0.39535681603317097     9.999828398324205+0.0012968708963065868i
0.21907547278280007       -0.4494507061124643      9.99982839832401+0.0012968727292626795i
0.2203562420457842        0.3508071650470407       9.999828398324327+0.0012968455322241981i
0.31236228542449446       0.3904225949460233       9.99982839832416+0.0012968442070513339i
0.31236323458562987       -0.39042183555636684     9.999828398324055+0.001296870685517347i
0.19838496270507153       -0.34654786025781825     9.999828398324274+0.0012968692197168096i
0.2768673065383102        0.2781670589214044       9.999828398324388+0.001296848016185206i
0.39042183555636684       0.31236323458562987      9.999828398324194+0.0012968468866877475i
0.3500744984340781        0.2131225078855333       9.999828398324393+0.0012968502382381371i
0.4494507061124643        0.21907547278280007      9.999828398324226+0.0012968500613077798i
0.48656958901289904       0.11510879657010833      9.999828398324285+0.0012968535737199176i
0.373626824184524         0.12205154078574453      9.99982839832443+0.0012968533229729205i
0.3904225949460233        -0.31236228542449446     9.999828398324125+0.0012968680057766223i
0.2797270408789609        -0.2903000959284411      9.99982839832431+0.0012968672879756895i
0.3436019409642757        -0.22158666252552534     9.999828398324352+0.001296864942348076i
0.4494512291293839        -0.2190743997688595      9.999828398324196+0.0012968648308948956i
0.4110437767117595        0.02949550221492875      9.999828398324425+0.0012968564511892187i
0.5                       0                        9.999828398324308+0.0012968574469176077i
0.3944537675017814        -0.15080897161828727     9.999828398324363+0.0012968625382087193i
0.4865686788481499        -0.11511264380582166     9.99982839832425+0.001296861318068562i
0.40158245080937577       -0.06452969749996143     9.99982839832441+0.0012968596241976743i
-7.616022971167956        -4.601836978431554       7.379867249322279+2.114890015739719E-4i
-8                        -4.411764705882353       7.420791199438351+2.1208772403396388E-4i
-8                        -5                       7.3784608523733075+2.1146444261759128E-4i
-7.407407407407416        -5                       7.335383403317926+2.108208903321175E-4i
-7.561694263371574        -4.114210030603361       7.451179193505639+2.1255253567550037E-4i
-8                        -3.823529411764707       7.547024073149049+2.1388959428120217E-4i
-7.538905553585199        -3.5346849537630654      7.614530600551491+2.14889517684744E-4i
-8                        -3.2352941176470598      7.754732006773118+2.1666928614599824E-4i
-7.1110131850607825       -4.483210155672055       7.314629658491439+2.105401048716655E-4i
-6.814814814814824        -5                       7.205430045528964+2.0881905869979403E-4i
-7.522128128874506        -2.9508656822490567      7.858660841030596+2.181183908055453E-4i
-8                        -2.647058823529412       8.039319319748847+2.2009765516815407E-4i
-2.148597629396302        -1.801344884923737       2.538722347989042+1.4669279338795724E-4i
-2.111881671632736        -1.7128365508302896      2.858915415793728+1.7578979012992772E-4i
-2.2398247131987112       -1.7212403199443325      3.339378720533027+1.8972448248895425E-4i
-7.101758354462945        -3.8332104880823823      7.448545358845968+2.1266478942173102E-4i
-7.047852574802162        -3.250999992231831       7.646152142502037+2.1567694431494735E-4i
-2.224513819918016        -1.8549965494895633      2.7105860982965972+1.4615302867268998E-4i
-2.3456910297756375       -1.800711690577835       3.4787976853809757+1.821676580160778E-4i
-2.048882519167909        -1.8193416128892514      1.8896637030014993+1.1598378204253147E-4i
-2.1179047576646823       -1.8973411761022634      1.8478430593276032+1.0257200688724065E-4i
-2.1918226977267157       -1.9498302246650052      2.1895727719293157+1.1308052552476056E-4i
-6.678589572469782        -4.093891724092163       7.267367362118668+2.100119616835515E-4i
-6.503582986825411        -4.527553342640779       7.130391118081371+2.0770357895894597E-4i
-6.22222222222223         -5                       6.98673257638896+2.0525412596780776E-4i
-2.3903149219406887       -1.6425834517867257      4.1877752933035985+2.265437608957321E-4i
-2.2838213513424064       -1.58742154270243        4.069963344794779+2.3570625307338188E-4i
-7.0338785248498406       -2.6538037130963983      7.940361483872388+2.197332946551052E-4i
-6.5402440731559475       -2.9334171814836028      7.659578380563535+2.1685187073207832E-4i
-7.519126657534923        -2.3577240648106748      8.183595291837825+2.2190031423600365E-4i
-8                        -2.0588235294117663      8.393443360714262+2.2373873751338385E-4i
-2.174903830731995        -1.601151373440903       3.670801718788887+2.2507273338689482E-4i
-1.9972836382512393       -1.7195190028048992      2.388283389895316+1.5886740025758338E-4i
-2.0630333476902067       -1.6101344126507666      3.2843453388587363+2.1532895756601266E-4i
-6.525554248525422        -3.5599420491446647      7.375198765336743+2.1213218886682563E-4i
-2.470143855179597        -1.741082959692135       4.129842631390773+2.097641294932593E-4i
-6.112674577952182        -3.172892340956658       7.374945637725458+2.133203334075551E-4i
-2.467037004751915        -1.870615467477262       3.7714241184939357+1.8394748641034514E-4i
-2.3039130042408456       -1.9578334449782784      2.8432138500334756+1.4095178220497318E-4i
-2.2128215040017474       -2.0393220371323992      2.172069985350767+1.0520197190768469E-4i
-1.9378548584944228       -1.8309073367206095      1.3050600444950922+8.807608060703479E-5i
-2                        -1.95                    0
-2.1068016311836324       -1.9973323369036466      1.3881640551944667+7.089709580380432E-5i
-2.1206778463207994       -2.0975606169679826      1.5276014947634613+7.155949495036143E-5i
-6.192605493147012        -4.063698172546164       7.087569549928076+2.0738632036915302E-4i
-5.925449900475405        -4.526926466460383       6.872499646626429+2.0344851318753775E-4i
-5.629629629629637        -5                       6.676969946766825+1.997896085953907E-4i
-2.2440296757516838       -1.4760996730035183      4.444847052805954+2.700059558334361E-4i
-2.370033615088954        -1.496032895336672       4.6775931697947355+2.6480558282072154E-4i
-2.5597056939311402       -1.6125819327135082      4.7823400724071154+2.4215744308712925E-4i
-2.480910713960567        -1.5154398746491236      4.8875029651002855+2.6135434982153284E-4i
-5.9878574950905925       -2.6507361875972792      7.608984330293767+2.1831958026150724E-4i
-6.536260480124803        -2.3643052621693843      7.994120209671249+2.2184598789108122E-4i
-7.0376592346066875       -2.065510095633842       8.308548958158958+2.2407436066692658E-4i
-7.520537106270423        -1.7674239892315942      8.573909327533622+2.2564847628770278E-4i
-8                        -1.4705882352941193      8.806546883326803+2.2709342458055457E-4i
-1.8169286616812501       -1.8296989959639878      1.070676290953231+8.049071513369881E-5i
-1.8807065547985977       -1.711325987575937       2.1327361519892456+1.5530956045480413E-4i
-2.120301153032409        -1.4940560291790768      4.06014812079798+2.6385809993987106E-4i
-1.9498021072568796       -1.6046194799823257      3.024325906176667+2.141564593837824E-4i
-2.017461297677229        -1.5192515633191235      3.689424772568638+2.5418687369059984E-4i
-5.9234767037782685       -3.603814954565786       7.1000779460253005+2.0848774490855862E-4i
-2.594023290102852        -1.77214511448472        4.443823866270164+2.1377535262976505E-4i
-2.7205825249602023       -1.6361660446518302      5.1303204945860825+2.431855990437106E-4i
-5.624349146492755        -3.123817445641354       7.150258180419265+2.11189580807324E-4i
-2.6087848616840312       -1.9262324419866677      4.1530835153463+1.9076669093428636E-4i
-2.459943263293657        -2.017193114621444       3.454015662643998+1.602065254408414E-4i
-2.2206840677063373       -2.1436528095843372      2.1982858677489348+1.002302753004942E-4i
-2.138081992831395        -2.1844913776683956      1.7814616274537165+7.938841341318196E-5i
-2.3348633615244916       -2.08912977235267        2.809528124034852+1.2987480878120142E-4i
-1.8888416738200915       -1.9499999999999997      0
-2                        -2.05                    0
-2.046587336893352        -2.1707654348918326      1.2463734458441882+5.5064355440333755E-5i
-1.7577197014044759       -1.95                    0
-1.6866349074047924       -1.824806198408246       1.001491515781684+8.303683938417338E-5i
-5.623909429784752        -4.059347183324516       6.791063605621084+2.0265720425029316E-4i
-5.335895001611226        -4.527762935075681       6.518544490254466+1.970596426908338E-4i
-5.037037037037043        -5                       6.274928109559646+1.9199490303768097E-4i
-2.186926519513567        -1.350828593368183       4.886069031444417+3.1311164960408036E-4i
-2.3369862986069148       -1.3161899386396168      5.313743385588174+3.153407131754547E-4i
-2.4761083819023653       -1.3926775627159727      5.303074199142476+2.9038771874145987E-4i
-2.6415822310509904       -1.4388857309384993      5.500930397153334+2.778147519982962E-4i
-2.8282673064625206       -1.495256957826467       5.726815787146439+2.668787531838685E-4i
-5.3549817784645235       -2.647703698999753       7.272344133420162+2.1632326019611472E-4i
-5.628966495399709        -2.2233731881933707      7.738928159109266+2.2350939644580773E-4i
-6.07858398640456         -2.047912878638054       8.06867305242563+2.2537724726827242E-4i
-7.5228517419784815       -1.1779407935932462      9.017535540712558+2.2883370789387544E-4i
-8                        -0.8823529411764723      9.264777020085072+2.2967005046208703E-4i
-6.565061804721928        -1.7708371762463315      8.426852729664676+2.27113963806775E-4i
-7.043585003502434        -1.4739572166459152      8.743071542152864+2.2813883053346743E-4i
-1.756485039013041        -1.699534195088866       2.022099446758384+1.6136042005112985E-4i
-1.8333659271905955       -1.5783994919330362      2.9771246538991387+2.289896879702108E-4i
-2.0380861649471322       -1.4027487555945277      4.362129777539995+3.025955540168169E-4i
-1.9225538844041026       -1.4750079309789812      3.7643676462495903+2.7742888950515825E-4i
-1.5499800882081727       -1.8242386308411653      0.9558969080706349+8.64260289080145E-5i
-1.6223404525771048       -1.6938334879547319      1.9516314006347741+1.6996319011035362E-4i
-1.408799613225151        -1.825189006990768       0.931886590356071+9.088416681914654E-5i
-1.4885150434944854       -1.7015962083483622      1.8475330782978123+1.735626328672114E-4i
-2.072355117733146        -1.2582342958908594      5.134546784061468+3.552336998080021E-4i
-5.330847125273208        -3.582497597657168       6.756253261322826+2.0355076013969475E-4i
-2.7634759947258294       -1.8133142504450084      4.831498495947244+2.1810307995965506E-4i
-2.9364406334878814       -1.68481228150278        5.5084587936041665+2.413930692396998E-4i
-2.747838275413466        -1.9929686350919846      4.460505370786852+1.9441239988911795E-4i
-5.0362571983977515       -3.085259894071481       6.777843017831363+2.069681917412057E-4i
-4.7522344110968975       -2.542025502814745       6.909342077121865+2.1501390927072583E-4i
-2.211705430402061        -2.250672322207124       2.2323769532230098+9.696788715917315E-5i
-2.1024407801288074       -2.2630033671735212      1.7656033972816296+7.57250296027795E-5i
-2.6203913418164677       -2.091158069799588       3.93215328660145+1.7201999523272081E-4i
-2.4756148351941305       -2.161933459751806       3.3496253930317876+1.4725402579626124E-4i
-2.3381423094668166       -2.2144367941045884      2.772940615947832+1.2165717970744285E-4i
-1.8888416738200915       -2.05                    0
-1.939186036974212        -2.1661924675419035      0.7636658527488557+3.2561689745036445E-5i
-1.997655477181978        -2.276860043103074       1.389810507243016+5.82871207922658E-5i
-1.6171055386819164       -1.95                    0
-1.4764876657530528       -1.95                    0
-1.3358697928241892       -1.9499999999999997      0
-5.0364171350863876       -4.0513733388402         6.392309316033583+1.9558970100065482E-4i
-4.740750805286361        -4.525487580230017       6.067825093096581+1.8803822616854295E-4i
-4.44444444444445         -5                       5.7831432348137115+1.8143035147992817E-4i
-7.522804152476271        -0.5890454687478186      9.498609048502615+2.3097598612758973E-4i
-8                        -0.29411764705882604     9.751400602945514+2.3107071000126467E-4i
-2.2512006797268564       -1.1276416678277847      5.944389680354577+3.759817277859261E-4i
-2.551029050804402        -1.1968393740159513      6.114996688170431+3.3033617356439433E-4i
-2.8308404484640595       -1.2910383139130766      6.275695539357364+2.982505497633563E-4i
-2.828733244203326        -1.0077356257381433      7.075623124497892+3.401482888030485E-4i
-3.0368842567951484       -1.4407327824532894      6.238221922018583+2.7209540873615997E-4i
-3.2252908495845936       -1.7117260098384157      6.008557341393842+2.4236580624832743E-4i
-4.713816544046338        -2.122041623262717       7.241878518498588+2.254024584163595E-4i
-4.3581955416471505       -2.1600222264487137      6.8910877420450065+2.2338957443732678E-4i
-5.118914156368538        -2.080374058123497       7.569905315592195+2.2631517846578421E-4i
-5.6059309927843275       -1.7373081113328808      8.140731375230558+2.308538015524001E-4i
-6.0871007728409925       -1.4656644825317653      8.556287737774083+2.3174572305926597E-4i
-7.045673184447102        -0.8839173476775332      9.225268081458223+2.3128334664424555E-4i
-6.566959093813705        -1.17881981650696        8.914445871127521+2.3168674053801656E-4i
-1.195251919895326        -1.95                    0
-1.2661691998829891       -1.8240793266739486      0.944222697599761+9.819861805667302E-5i
-1.0546340469664628       -1.95                    0
-1.125582379834066        -1.8258586986494878      0.9487389972591124+1.0397657610679958E-4i
-1.3357763378359282       -1.7012187288569842      1.844981946982802+1.867049174688254E-4i
-1.699184272865617        -1.5589570929194934      2.951659575673498+2.477822668970194E-4i
-1.791463704805337        -1.4209522650526143      3.9161401685646937+3.148937994973942E-4i
-1.9158348658249158       -1.310371770515641       4.675889138396584+3.528013462264149E-4i
-1.5461830755388715       -1.5479862167636547      2.9420118146236263+2.6992951755477754E-4i
-1.4097541725465272       -1.5958369118513314      2.5951034455073945+2.546848158410356E-4i
-1.9762733263036494       -1.1007218501090932      5.779888575054752+4.2723222887518117E-4i
-1.4180646037500115       -0.15186259615865344     9.604191769379101+9.323022785708733E-4i
-1.419753632860351        0.07905736725019337      10.204164569035923+9.368628220268546E-4i
-4.74067332302724         -3.5713727741512526      6.305851018941927+1.960624320866591E-4i
-2.985615126898292        -1.9623385150645365      5.109565913056845+2.1184822853235948E-4i
-2.806248421598345        -2.1709354912161114      4.385120656357292+1.8165169680205446E-4i
-3.399432829144132        -2.0872853765581594      5.743609179351588+2.1564929124356499E-4i
-4.135679930646257        -2.6298644804888127      6.235379182717952+2.0575789476510707E-4i
-3.8491218021037286       -2.1791580262748416      6.3003262747464275+2.1860247379916435E-4i
-4.452403486413738        -3.084090966549864       6.270586811733964+1.9949140504481688E-4i
-2.316532367506495        -2.3379148836681276      2.716510857822115+1.1433552475771467E-4i
-2.189089178452555        -2.3600865950916363      2.2660203845848095+9.464546915748325E-5i
-2.075142488210708        -2.3710362611863993      1.88355001158752+7.775804015987239E-5i
-2.6289823115372615       -2.2750829093928155      3.785138822910188+1.5758948211915287E-4i
-2.4754951308037194       -2.31503855219612        3.2756179182350493+1.3740471266188376E-4i
-2.3973486305506007       -2.426003143780787       3.0229581048898733+1.237260759050769E-4i
-1.7577197014044725       -2.05                    0
-1.819808963706177        -2.166896579102557       0.5233423560033684+2.1419419944001383E-5i
-1.688682285515012        -2.1674687162332034      0.40047560736382865+1.587323528262359E-5i
-1.6171055386818856       -2.05                    0
-1.88417886724541         -2.2818948442800653      1.0785275890315766+4.408442838533023E-5i
-1.9537654890638252       -2.383646489790776       1.5459860963350938+6.264769406053146E-5i
-1.5490865783038372       -2.1675303118182088      0.3260193252965447+1.2607121309758396E-5i
-1.4764876657530244       -2.05                    0
-4.442636139901992        -4.0539507139820605      5.88752948377748+1.8543387653019674E-4i
-4.146137168013116        -4.529838012418363       5.527010935187985+1.7594298721587445E-4i
-3.8518518518518565       -5                       5.2120091497936905+1.6782783343550104E-4i
-7.522880759196325        -5.822480979341405E-4    9.999062513180744+2.3173251177371838E-4i
-8                        0.2941176470588207       10.247721266250416+2.3107193470255476E-4i
-7.045855891385254        -0.2953148380328393      9.737295826994854+2.3300338057048327E-4i
-2.1141444352536762       -0.8391545086930003      6.997426643714227+4.7943175509426375E-4i
-1.5751804549922217       -0.29974078724036973     9.083061336094667+8.141752934606681E-4i
-1.684162769850364        -0.048380021635812266    9.847737019386203+7.786569621531758E-4i
-1.8337213519134512       -0.3285804883944376      8.897895474454131+6.816534916232797E-4i
-2.520673863483769        -0.8318896193570245      7.3157902828423635+4.037117557034653E-4i
-2.911537529310335        -0.6804298439121363      8.085071961081345+3.699924478749196E-4i
-3.098546601467972        -1.1667794125061088      6.97918975850829+3.021380286119942E-4i
-3.0829187029762544       -0.9030407343868639      7.62403271297273+3.309607876403045E-4i
-3.6278931142973176       -1.718157619054904       6.60579381824094+2.4278258476756443E-4i
-3.368765971881931        -1.3773059944252957      6.861157808354938+2.7166815833091406E-4i
-4.0976712688579635       -1.7235696725746898      7.1381081268597635+2.4042261631053297E-4i
-4.6678647874877495       -1.7162396669103321      7.631805318981423+2.368179197264758E-4i
-5.142865056425695        -1.4737802202286887      8.18816789643161+2.3852676370200902E-4i
-5.614941076073151        -1.1756770744750156      8.693503403074617+2.3848012390615496E-4i
-6.0911335707723735       -0.8834325746514796      9.103351215495442+2.368215511499203E-4i
-6.568559554294759        -0.5898865311896354      9.444774110343845+2.3479414601140864E-4i
-1.628428428704098        0.2672649180258723       10.834995466448165+7.900242662547656E-4i
-1.349312574586833        0.3572165757346898       10.910308588533768+9.429614254504206E-4i
-0.9842263254054174       -1.8287604714005021      0.9537439687798325+1.0908952550308172E-4i
-0.9140161740375993       -1.95                    0
-1.195735155683276        -1.6922095255464504      1.9385269575209312+2.077263570992092E-4i
-1.0561406214016595       -1.707193630972005       1.8744099170680932+2.104306973910726E-4i
-1.2771873783583994       -1.5560619168269958      2.9017313150549486+3.024334004744649E-4i
-1.6161669434132775       -1.387521944474302       4.0087422267562305+3.57467231620207E-4i
-1.7619268775732235       -1.2152714437164662      5.067886707834453+4.210066789765259E-4i
-1.4034352650796038       -1.4209208000996378      3.7903602089410415+3.7589535417454544E-4i
-1.2148631329567927       -0.26084728874676216     9.513233491123403+0.0010665821978133871i
-1.759456753812341        -0.9098755681609653      6.597178849563384+5.533546045179697E-4i
-1.9564430500842218       -0.5885822655544981      7.937590683358104+5.856100837282088E-4i
-1.6103303013664367       -0.5863687237790884      8.040874621063677+7.262094264007909E-4i
-1.3625505965447187       -0.398221748974979       8.948224437026356+9.230566517077547E-4i
-4.146896549418041        -3.5830279241726832      5.729998806178301+1.846322197764983E-4i
-3.064475129779669        -2.324351606881062       4.843404473744413+1.8729073949250112E-4i
-2.7901883441449153       -2.379713211066684       4.162208541174565+1.6584924782424762E-4i
-3.4664650576163267       -2.6325968530421995      5.331135251812001+1.8936330939424298E-4i
-3.8538754100193926       -3.1289798333026906      5.582429860257933+1.8595742402728743E-4i
-2.2874135253632155       -2.4612518946285107      2.693167761514196+1.095330297925368E-4i
-2.148359697419643        -2.478722700650597       2.2844432985132808+9.222399889808378E-5i
-2.0359044525498096       -2.4647760127409954      1.939886628359013+7.796094636974629E-5i
-2.585473382936736        -2.493523917454935       3.576272666434494+1.4235792808118855E-4i
-2.3954611460938553       -2.553326978297945       3.0604383329600156+1.2159992307740004E-4i
-1.7612371236361886       -2.2863834421821627      0.8624897715905494+3.4344161827026445E-5i
-1.6271491870776131       -2.284206175595705       0.6975889229411782+2.714794136262774E-5i