% Model:              VLR_3_01V03.mph
% Version:            COMSOL 5.5.0.292
% Date:               Jun 30 2020, 18:40
% Dimension:          2
% Nodes:              4083
% Expressions:        1
% Description:        Electric potential
% Length unit:        cm
% x                       y                        V2 (V)
-7.999999999999997        -1.9499999999999997      0
-8.111816447474958        -1.9499999999999997      0
-8.000000000000002        -2.05                    0
-8.113431734316919        -2.05                    0
-8.24323608272914         -1.9499999999999997      0
-8.246868669052073        -2.05                    0
-8.383087492833553        -1.9499999999999997      0
-8.386708214307854        -2.05                    0
-8.523034260198493        -1.9499999999999997      0
-8.526592555440477        -2.05                    0
-8.662981027563434        -1.9499999999999997      0
-8.6664768965731          -2.05                    0
-8.802927794928376        -1.9499999999999997      0
-8.806361237705723        -2.05                    0
-8.942874562293316        -1.9499999999999997      0
-8.946245578838345        -2.05                    0
-9.082821329658257        -1.9499999999999997      0
-9.086129919970968        -2.05                    0
-9.222768097023199        -1.9499999999999997      0
-9.226014261103591        -2.05                    0
-9.36271486438814         -1.9499999999999997      0
-9.365898602236214        -2.05                    0
-9.502661631753082        -1.9499999999999997      0
-9.505782943368839        -2.05                    0
-9.642608399118021        -1.9499999999999997      0
-9.64566728450146         -2.05                    0
-9.782555166482963        -1.95                    0
-9.785551625634083        -2.05                    0
-9.922501933847904        -1.9499999999999997      0
-9.925435966766706        -2.05                    0
-10.062448701212844       -1.9499999999999997      0
-10.065320307899329       -2.05                    0
-10.202395468577786       -1.9499999999999997      0
-10.205204649031952       -2.05                    0
-10.342342235942727       -1.9499999999999997      0
-10.345088990164575       -2.05                    0
-10.482289003307669       -1.9499999999999997      0
-10.484973331297198       -2.05                    0
-10.62223577067261        -1.9499999999999997      0
-10.624857672429822       -2.05                    0
-10.76218253803755        -1.9499999999999997      0
-10.764742013562444       -2.05                    0
-10.902129305402493       -1.9499999999999997      0
-10.904626354695067       -2.05                    0
-11.042076072767433       -1.95                    0
-11.04451069582769        -2.05                    0
-11.182022840132374       -1.9499999999999997      0
-11.18439503696031        -2.05                    0
-11.321969607497316       -1.9499999999999997      0
-11.324279378092935       -2.05                    0
-11.461916374862255       -1.9499999999999997      0
-11.464163719225558       -2.05                    0
-11.601863142227199       -1.9499999999999997      0
-11.604048060358181       -2.05                    0
-11.741809909592138       -1.9499999999999997      0
-11.743932401490804       -2.05                    0
-11.88175667695708        -1.9499999999999997      0
-11.883816742623427       -2.05                    0
-12.021703444322021       -1.9499999999999997      0
-12.02370108375605        -2.05                    0
-12.161650211686961       -1.9499999999999997      0
-12.163585424888673       -2.05                    0
-12.301596979051903       -1.95                    0
-12.303469766021294       -2.05                    0
-12.441543746416844       -1.9499999999999997      0
-12.443354107153917       -2.05                    0
-12.581490513781784       -1.9499999999999997      0
-12.58323844828654        -2.05                    0
-12.721437281146725       -1.9499999999999997      0
-12.723122789419161       -2.05                    0
-12.861384048511667       -1.9499999999999997      0
-12.863007130551784       -2.05                    0
-13.001330815876608       -1.9499999999999997      0
-13.002891471684407       -2.05                    0
-13.14127758324155        -1.9499999999999997      0
-13.142775812817032       -2.05                    0
-13.281224350606491       -1.9499999999999997      0
-13.282660153949651       -2.05                    0
-13.421171117971431       -1.9499999999999997      0
-13.422544495082276       -2.05                    0
-13.561117885336374       -1.9499999999999997      0
-13.562428836214899       -2.05                    0
-13.701064652701314       -1.9499999999999997      0
-13.70231317734752        -2.05                    0
-13.841011420066254       -1.9499999999999997      0
-13.842197518480143       -2.05                    0
-13.980958187431195       -1.9499999999999997      0
-13.982081859612764       -2.05                    0
-14.120904954796137       -1.9499999999999997      0
-14.121966200745387       -2.05                    0
-14.260851722161078       -1.9499999999999997      0
-14.261850541878008       -2.05                    0
-14.400798489526018       -1.9499999999999997      0
-14.401734883010633       -2.05                    0
-14.540745256890961       -1.9499999999999997      0
-14.541619224143254       -2.05                    0
-14.680692024255901       -1.9499999999999997      0
-14.681503565275877       -2.05                    0
-14.820638791620844       -1.9499999999999997      0
-14.8213879064085         -2.05                    0
-14.96058555898578        -1.95                    0
-14.961272247541121       -2.05                    0
-15.100532326350724       -1.9499999999999997      0
-15.101156588673742       -2.05                    0
-15.240479093715663       -1.9499999999999997      0
-15.241040929806365       -2.05                    0
-15.380425861080605       -1.9499999999999997      0
-15.380925270938988       -2.05                    0
-15.520372628445548       -1.9499999999999997      0
-15.52080961207161        -2.05                    0
-15.660319395810488       -1.9499999999999997      0
-15.660693953204236       -2.05                    0
-15.800266163175431       -1.9499999999999997      0
-15.800578294336857       -2.05                    0
-15.94021293054037        -1.9499999999999997      0
-15.94046263546948        -2.05                    0
-16.08015969790531        -1.9499999999999997      0
-16.0803469766021         -2.05                    0
-16.220106465270252       -1.95                    0
-16.220231317734722       -2.05                    0
-16.360053232635195       -1.9499999999999997      0
-16.360115658867343       -2.05                    0
-16.499999999999968       -2.05                    0
-16.500000000000135       -1.9499999999999997      0
-16.63988434113259        -2.05                    0
-16.639946767365075       -1.95                    0
-16.779768682265214       -2.05                    0
-16.779893534730014       -1.95                    0
-16.91965302339784        -2.05                    0
-16.919840302094954       -1.9499999999999997      0
-17.05953736453046        -2.05                    0
-17.059787069459894       -1.9499999999999997      0
-17.199421705663084       -2.05                    0
-17.199733836824837       -1.95                    0
-17.339306046795706       -2.05                    0
-17.339680604189773       -1.9499999999999997      0
-17.47919038792833        -2.05                    0
-17.479627371554713       -1.9499999999999997      0
-17.619074729060955       -2.05                    0
-17.619574138919656       -1.9499999999999997      0
-17.758959070193576       -2.05                    0
-17.759520906284596       -1.95                    0
-17.8988434113262         -2.05                    0
-17.899467673649536       -1.95                    0
-18.038727752458826       -2.05                    0
-18.039414441014475       -1.9499999999999997      0
-18.178612093591447       -2.05                    0
-18.179361208379415       -1.95                    0
-18.31849643472407        -2.05                    0
-18.31930797574436        -1.9500000000000004      0
-18.458380775856693       -2.05                    0
-18.459254743109298       -1.9499999999999997      0
-18.598265116989317       -2.05                    0
-18.599201510474234       -1.9499999999999997      0
-18.738149458121942       -2.05                    0
-18.739148277839178       -1.9499999999999997      0
-18.878033799254563       -2.05                    0
-18.879095045204117       -1.95                    0
-19.017918140387188       -2.05                    0
-19.019041812569057       -1.9499999999999997      0
-19.157802481519816       -2.05                    0
-19.158988579933997       -1.9499999999999997      0
-19.297686822652434       -2.05                    0
-19.298935347298936       -1.9499999999999997      0
-19.43757116378506        -2.05                    0
-19.438882114663876       -1.9500000000000004      0
-19.577455504917683       -2.05                    0
-19.578828882028816       -1.95                    0
-19.717339846050304       -2.05                    0
-19.718775649393756       -1.9499999999999997      0
-19.85722418718293        -2.05                    0
-19.858722416758702       -1.95                    0
-19.997108528315554       -2.05                    0
-19.99866918412364        -1.9499999999999997      0
-20.136992869448175       -2.05                    0
-20.13861595148858        -1.9499999999999997      0
-20.2768772105808         -2.05                    0
-20.278562718853514       -1.9499999999999997      0
-20.41676155171342        -2.05                    0
-20.418509486218458       -1.9499999999999997      0
-20.556645892846046       -2.05                    0
-20.558456253583397       -1.95                    0
-20.69653023397867        -2.05                    0
-20.69840302094834        -1.95                    0
-20.83641457511129        -2.05                    0
-20.838349788313277       -1.9499999999999997      0
-20.976298916243916       -2.05                    0
-20.97829655567822        -1.95                    0
-21.11618325737654        -2.05                    0
-21.118243323043156       -1.95                    0
-21.256067598509162       -2.05                    0
-21.258190090408096       -1.95                    0
-21.39595193964179        -2.05                    0
-21.398136857773036       -1.9500000000000004      0
-21.535836280774408       -2.05                    0
-21.53808362513798        -1.9500000000000004      0
-21.675720621907033       -2.05                    0
-21.67803039250292        -1.9499999999999997      0
-21.815604963039657       -2.05                    0
-21.817977159867855       -1.9499999999999997      0
-21.95548930417228        -2.05                    0
-21.957923927232795       -1.9499999999999997      0
-22.095373645304903       -2.05                    0
-22.097870694597734       -1.95                    0
-22.235257986437528       -2.05                    0
-22.237817461962678       -1.95                    0
-22.37514232757015        -2.05                    0
-22.377764229327614       -1.9499999999999997      0
-22.515026668702774       -2.05                    0
-22.517710996692557       -1.9500000000000004      0
-22.654911009835395       -2.05                    0
-22.657657764057493       -1.95                    0
-22.79479535096802        -2.05                    0
-22.797604531422433       -1.95                    0
-22.934679692100644       -2.05                    0
-22.937551298787373       -1.95                    0
-23.074564033233266       -2.05                    0
-23.077498066152312       -1.95                    0
-23.21444837436589        -2.05                    0
-23.217444833517252       -1.9500000000000004      0
-23.354332715498515       -2.05                    0
-23.357391600882195       -1.9499999999999997      0
-23.494217056631136       -2.05                    0
-23.49733836824713        -1.9499999999999997      0
-23.634101397763764       -2.05                    0
-23.637285135612075       -1.95                    0
-23.773985738896382       -2.05                    0
-23.777231902977014       -1.95                    0
-23.913870080029007       -2.05                    0
-23.91717867034195        -1.95                    0
-24.05375442116163        -2.05                    0
-24.05712543770689        -1.95                    0
-24.193638762294253       -2.05                    0
-24.197072205071827       -1.9499999999999997      0
-24.333523103426877       -2.05                    0
-24.337018972436773       -1.95                    0
-24.473407444559502       -2.05                    0
-24.47696573980171        -1.95                    0
-24.613291785692123       -2.05                    0
-24.61691250716665        -1.95                    0
-24.75313133094793        -2.05                    0
-24.75676391727087        -1.95                    0
-24.88656826568309        -2.05                    0
-24.888183552525035       -1.9500000000000004      0
-24.943687954552033       -2                       0
-25                       -1.95                    0
-25                       -2.05                    0
-24.943687954552033       1.9999999999999998       20.00000000000006
-25                       2.05                     20
-25                       1.95                     20
-24.88818355252504        2.05                     20
-24.886568265683085       1.95                     20
-24.756763917270867       2.05                     20
-24.75313133094793        1.95                     20
-24.616912507166646       2.05                     20
-24.613291785691604       1.95                     20
-24.476965739801713       2.05                     20
-24.47340744455898        1.95                     20
-24.33701897243678        2.05                     20
-24.333523103426362       1.95                     20
-24.197072205071848       2.05                     20
-24.19363876229374        1.95                     20
-24.057125437706915       2.05                     20
-24.053754421161123       1.95                     20
-23.917178670341983       2.05                     20
-23.913870080028502       1.95                     20
-23.77723190297705        2.05                     20
-23.773985738895888       1.9499999999999997       20
-23.637285135612117       2.05                     20
-23.634101397763263       1.95                     20
-23.497338368247185       2.05                     20
-23.494217056630646       1.95                     20
-23.35739160088225        2.05                     20
-23.354332715498025       1.95                     20
-23.217444833517316       2.05                     20
-23.214448374365407       1.95                     20
-23.077498066152383       2.05                     20
-23.074564033232786       1.95                     20
-22.93755129878745        2.05                     20
-22.93467969210017        1.95                     20
-22.79760453142252        2.05                     20
-22.794795350967547       1.95                     20
-22.65765776405759        2.05                     20
-22.65491100983493        1.95                     20
-22.517710996692653       2.05                     20
-22.51502666870231        1.9500000000000004       20
-22.37776422932772        2.05                     20
-22.37514232756969        1.95                     20
-22.237817461962788       2.05                     20
-22.23525798643707        1.9499999999999997       20
-22.097870694597855       2.05                     20
-22.09537364530445        1.95                     20
-21.957923927232923       2.05                     20
-21.955489304171827       1.95                     20
-21.81797715986799        2.05                     20
-21.81560496303921        1.95                     20
-21.678030392503054       2.05                     20
-21.67572062190659        1.95                     20
-21.53808362513812        2.05                     20
-21.53583628077397        1.95                     20
-21.39813685777319        2.05                     20
-21.39595193964135        1.95                     20
-21.258190090408256       2.05                     20
-21.256067598508732       1.9500000000000004       20
-21.11824332304332        2.05                     20
-21.11618325737611        1.95                     20
-20.97829655567839        2.05                     20
-20.976298916243493       1.9499999999999997       20
-20.838349788313458       2.05                     20
-20.836414575110872       1.95                     20
-20.698403020948522       2.05                     20
-20.696530233978255       1.9499999999999997       20
-20.55845625358359        2.05                     20
-20.556645892845633       1.95                     20
-20.418509486218657       2.05                     20
-20.416761551713016       1.9499999999999997       20
-20.278562718853724       2.05                     20
-20.276877210580395       1.95                     20
-20.138615951488788       2.05                     20
-20.136992869447777       1.95                     20
-19.998669184123855       2.05                     20
-19.997108528315152       1.9500000000000004       20
-19.858722416758923       2.05                     20
-19.857224187182535       1.95                     20
-19.71877564939399        2.05                     20
-19.717339846049914       1.9500000000000004       20
-19.578828882029054       2.05                     20
-19.577455504917296       1.95                     20
-19.43888211466412        2.05                     20
-19.437571163784675       1.9499999999999997       20
-19.29893534729919        2.05                     20
-19.297686822652057       1.95                     20
-19.158988579934256       2.05                     20
-19.157802481519436       1.9499999999999997       20
-19.01904181256932        2.05                     20
-19.01791814038682        1.95                     20
-18.879095045204387       2.05                     20
-18.878033799254197       1.9499999999999997       20
-18.739148277839455       2.05                     20
-18.73814945812158        1.9500000000000004       20
-18.599201510474522       2.05                     20
-18.59826511698896        1.95                     20
-18.45925474310959        2.05                     20
-18.45838077585634        1.9500000000000004       20
-18.319307975744653       2.05                     20
-18.31849643472372        1.95                     20
-18.17936120837972        2.05                     20
-18.1786120935911         1.9500000000000004       20
-18.039414441014785       2.05                     20
-18.03872775245848        1.95                     20
-17.899467673649852       2.05                     20
-17.89884341132586        1.9499999999999997       20
-17.75952090628492        2.05                     20
-17.758959070193242       1.95                     20
-17.619574138919987       2.05                     20
-17.61907472906062        1.9499999999999997       20
-17.47962737155505        2.05                     20
-17.479190387928004       1.95                     20
-17.339680604190118       2.05                     20
-17.339306046795382       1.95                     20
-17.199733836825185       2.05                     20
-17.19942170566276        1.9500000000000004       20
-17.059787069460253       2.05                     20
-17.059537364530144       1.95                     20
-16.919840302095317       2.05                     20
-16.919653023397522       1.9500000000000004       20
-16.779893534730384       2.05                     20
-16.779768682264905       1.95                     20
-16.63994676736545        2.05                     20
-16.639884341132284       1.95                     20
-16.50000000000052        2.05                     20
-16.499999999999666       1.9500000000000004       20
-16.36011565886705        1.9499999999999997       20
-16.360053232635583       2.05                     20
-16.22023131773443        1.9500000000000004       20
-16.22010646527065        2.05                     20
-16.080346976601813       1.9499999999999997       20
-16.080159697905717       2.05                     20
-15.940462635469196       1.95                     20
-15.940212930540785       2.05                     20
-15.800578294336578       1.9499999999999997       20
-15.80026616317585        2.05                     20
-15.66069395320396        1.95                     20
-15.660319395810914       2.05                     20
-15.520809612071343       1.9499999999999997       20
-15.520372628445983       2.05                     20
-15.380925270938725       1.9500000000000004       20
-15.38042586108105        2.05                     20
-15.241040929806108       1.9499999999999997       20
-15.240479093716115       2.05                     20
-15.10115658867349        1.9500000000000004       20
-15.100532326351182       2.05                     20
-14.961272247540869       1.9499999999999997       20
-14.96058555898625        2.05                     20
-14.821387906408253       1.9500000000000004       20
-14.820638791621318       2.05                     20
-14.681503565275634       1.95                     20
-14.68069202425638        2.05                     20
-14.541619224143021       1.9500000000000004       20
-14.54074525689145        2.05                     20
-14.401734883010398       1.95                     20
-14.400798489526515       2.05                     20
-14.261850541877784       1.9500000000000004       20
-14.260851722161583       2.05                     20
-14.121966200745165       1.9499999999999997       20
-14.120904954796648       2.05                     20
-13.98208185961255        1.95                     20
-13.980958187431714       2.05                     20
-13.84219751847993        1.9499999999999997       20
-13.841011420066781       2.05                     20
-13.70231317734731        1.9500000000000004       20
-13.70106465270185        2.05                     20
-13.562428836214693       1.9499999999999997       20
-13.561117885336913       2.05                     20
-13.422544495082079       1.9500000000000004       20
-13.42117111797198        2.05                     20
-13.282660153949458       1.9499999999999997       20
-13.281224350607049       2.05                     20
-13.14277581281684        1.9500000000000004       20
-13.141277583242115       2.05                     20
-13.002891471684222       1.9499999999999997       20
-13.00133081587718        2.05                     20
-12.863007130551605       1.9500000000000004       20
-12.861384048512244       2.05                     20
-12.723122789418987       1.95                     20
-12.721437281147313       2.05                     20
-12.583238448286368       1.9500000000000004       20
-12.581490513782379       2.05                     20
-12.443354107153752       1.95                     20
-12.441543746417445       2.05                     20
-12.303469766021134       1.95                     20
-12.301596979052512       2.05                     20
-12.163585424888517       1.95                     20
-12.16165021168758        2.05                     20
-12.023701083755899       1.95                     20
-12.021703444322645       2.05                     20
-11.883816742623281       1.9499999999999997       20
-11.88175667695771        2.05                     20
-11.743932401490664       1.9500000000000004       20
-11.741809909592778       2.05                     20
-11.604048060358046       1.9499999999999997       20
-11.601863142227845       2.05                     20
-11.464163719225429       1.9500000000000004       20
-11.461916374862911       2.05                     20
-11.324279378092811       1.9499999999999997       20
-11.321969607497977       2.05                     20
-11.184395036960193       1.9500000000000004       20
-11.182022840133044       2.05                     20
-11.044510695827576       1.9499999999999997       20
-11.042076072768111       2.05                     20
-10.904626354694958       1.9500000000000004       20
-10.902129305403177       2.05                     20
-10.76474201356234        1.95                     20
-10.762182538038243       2.05                     20
-10.624857672429723       1.95                     20
-10.62223577067331        2.05                     20
-10.484973331297105       1.95                     20
-10.482289003308376       2.05                     20
-10.345088990164488       1.95                     20
-10.342342235943443       2.05                     20
-10.205204649031868       1.95                     20
-10.202395468578509       2.05                     20
-10.065320307899253       1.9499999999999997       20
-10.062448701213576       2.05                     20
-9.925435966766635        1.95                     20
-9.922501933848642        2.05                     20
-9.785551625634016        1.95                     20
-9.782555166483709        2.05                     20
-9.645667284501398        1.9499999999999997       20
-9.642608399118775        2.05                     20
-9.50578294336878         1.95                     20
-9.502661631753842        2.05                     20
-9.365898602236163        1.9499999999999997       20
-9.362714864388908        2.05                     20
-9.226014261103545        1.95                     20
-9.222768097023975        2.05                     20
-9.086129919970928        1.9499999999999997       20
-9.08282132965904         2.05                     20
-8.94624557883831         1.95                     20
-8.942874562294108        2.05                     20
-8.806361237705692        1.95                     20
-8.802927794929174        2.05                     20
-8.666476896573075        1.9499999999999997       20
-8.662981027564241        2.05                     20
-8.526592555440457        1.95                     20
-8.523034260199307        2.05                     20
-8.38670821430784         1.9499999999999997       20
-8.383087492834374        2.05                     20
-8.243236082729142        2.05                     20
-8.246868669052066        1.95                     20
-8.113431734316917        1.95                     20
-8.111816447474958        2.05                     20
-8.000000000000002        1.95                     20
-7.999999999999997        2.05                     20
7.944076475790865         -1.9999999999999998      0
8.000000000000002         -1.95                    0
7.88818425213668          -1.9499999999999997      0
7.999999999999997         -2.05                    0
7.756626146421812         -1.9499999999999997      0
7.888121651026776         -2.05                    0
7.616913269708121         -1.9499999999999997      0
7.756485711988434         -2.05                    0
6.918113887166104         -1.9499999999999997      0
6.778354010657702         -1.9499999999999997      0
6.91798724749883          -2.05                    0
6.7782299293675425        -2.05                    0
6.638594134149297         -1.9499999999999997      0
6.638472611236253         -2.05                    0
6.498834257640894         -1.9499999999999997      0
7.0578737636745075        -1.9499999999999997      0
7.05774456563012          -2.05                    0
7.197501883761408         -2.05                    0
7.197633640182912         -1.9499999999999997      0
7.616773838155274         -2.05                    0
7.477153393199718         -1.9499999999999997      0
7.4770165200239855        -2.05                    0
7.337393516691313         -1.9499999999999997      0
7.337259201892697         -2.05                    0
6.359074381132491         -1.9499999999999997      0
6.498715293104965         -2.05                    0
6.358957974973675         -2.05                    0
6.219314504624087         -1.9499999999999997      0
5.93979475160728          -1.9499999999999997      0
5.800034875098877         -1.9499999999999997      0
5.939686020579808         -2.05                    0
6.219200656842386         -2.05                    0
6.079554628115684         -1.9499999999999997      0
6.079443338711098         -2.05                    0
5.799928702448519         -2.05                    0
5.660274998590474         -1.9499999999999997      0
5.52051512208207          -1.9499999999999997      0
5.6601713843172305        -2.05                    0
5.520414066185943         -2.05                    0
5.380755245573667         -1.9499999999999997      0
5.380656748054653         -2.05                    0
5.2409953690652635        -1.9499999999999997      0
5.10123549255686          -1.9499999999999997      0
5.240899429923365         -2.05                    0
5.101142111792076         -2.05                    0
4.961475616048457         -1.9499999999999997      0
4.961384793660788         -2.05                    0
4.821715739540053         -1.9499999999999997      0
4.68195586303165          -1.9499999999999997      0
4.821627475529499         -2.05                    0
4.1229163569980365        -1.9499999999999997      0
3.983156480489633         -1.9499999999999997      0
4.122840884873055         -2.05                    0
3.8433966039812297        -1.9499999999999997      0
3.9830835667417666        -2.05                    0
2.445797838897196         -1.9499999999999997      0
2.3060379623887926        -1.9499999999999997      0
2.4457530672975887        -2.05                    0
4.262598203004344         -2.05                    0
4.26267623350644          -1.9499999999999997      0
4.402355521135632         -2.05                    0