% Model:              VLR_3_01V03.mph
% Version:            COMSOL 5.5.0.292
% Date:               Jun 30 2020, 18:38
% Dimension:          2
% Nodes:              2080
% Expressions:        1
% Description:        Electric potential
% Length unit:        cm
% x                       y                        V2 (V)
-0.2                      0                        10.000053261972806+8.981711800128517E-7i
-0.23680405361441928      -0.014996048111892871    9.978178711926207+0.001776415474062705i
-0.19480050445325514      -0.045307432776061314    9.999767680279406+0.00758919601612685i
-0.1799784452820661       -0.08722246977614395     9.99950358010766+0.014609170831871044i
-0.22190121073295035      -0.08712143176295017     9.870160466890242+0.010233935446911141i
-0.19480055158252196      0.04530723014205566      10.000338976886932-0.007589758166671414i
-0.23416840022706975      0.033896342664274014     10.048806104457512-0.004040696372203755i
-0.15626273723914907      -0.12482770906545015     9.999266520297342+0.020911581909006483i
-0.19752671641129205      -0.12881640999066413     9.817839302363192+0.015471629481307867i
-0.1799795388163249       0.0872202132963627       10.000603084446846-0.014609734872101923i
-0.2197295992380691       0.08248374243988993      10.11377181735723-0.010001794021229039i
-0.16527691024220756      -0.16676954261626323     9.76916985735518+0.02021131187317896i
-0.1248260106301913       -0.15626409398883467     9.999068262420453+0.02618391796896667i
-0.19718861460457904      0.1262614968735954       10.17210742556921-0.015385655368933536i
-0.15626441318037387      0.12482561104754661      10.000840146716458-0.020912134877252724i
-0.125876657952965        -0.1989408207590936      9.720480608082054+0.023985424027984644i
-0.08722051950937931      -0.1799793904215535      9.99891862766081+0.03016426232519424i
-0.07956344914147358      -0.22288848187695065     9.678044004043004+0.026591198800138247i
-0.04530739583334546      -0.194800513045527       9.998825069566255+0.03265342742477344i
-0.16627663778645987      0.1639142934678821       10.22026025789411-0.020091470319092437i
-0.12482824553099213      0.15626230869168145      10.00103838780479-0.026184124240593038i
-0.027808321597114716     -0.23673463385742669     9.645807892976459+0.02784084184788475i
0                         -0.2                     9.998792177083955+0.03352824952910116i
-0.08722323530655218      0.17997807428311324      10.001187960310423-0.03016338928417302i
-0.12986285832740652      0.19669082177014938      10.27812097758783-0.02365763241202981i
-0.04530842701600124      0.19480027320652224      10.001281457447446-0.03265141108975163i
-0.08715340899540129      0.2211052869497194       10.326193095071526-0.026151545037698395i
0.026662165977415886      -0.23680260636585118     9.646126353741586+0.02786312682483334i
0.045307432776061314      -0.19480050445325514     9.99882505761888+0.03265371123907669i
0                         0.2                      10.00131436195814-0.03352635422378167i
-0.01470240251071097      0.23496887030332536      10.330868993998967-0.028331903387614103i
0.08722246977614395       -0.1799784452820661      9.99891863311504+0.0301641920609159i
0.07998981461052632       -0.22430114372947446     9.666058938713972+0.026425880231517217i
0.1255875227412274        -0.19895662487960034     9.721315039160325+0.02401651679375812i
0.12482770906545015       -0.15626273723914907     9.999068250476354+0.02618417396745423i
0.1652131496948351        -0.16646257241289236     9.770961012017795+0.020220506071210027i
0.15626409398883467       -0.1248260106301913      9.999266499513459+0.02091203345326334i
0.04530839156627776       0.1948002814517393       10.001281562135103-0.032653237522904284i
0.03335573178440219       0.23434961517404657      10.339088853984608-0.02795066276655535i
0.08722128626596289       0.17997901883861617      10.001188012792202-0.03016424331968472i
0.08205571128200087       0.22045211909054963      10.30883538865394-0.026626040277597577i
0.19773689106680403       -0.12706391585784707     9.82336409502065+0.015364029655985512i
0.1799793904215535        -0.08722051950937931     9.99950355257486+0.014609762556294198i
0.22165379421376705       -0.08289074749619735     9.88083292773828+0.009884372658104974i
0.194800513045527         -0.04530739583334546     9.999767676682772+0.007589503266077412i
0.12619701748718368       0.1979775776411388       10.27434572893638-0.024001259314578274i
0.12482654379450844       0.1562636680880034       10.001038382052128-0.02618400980934688i
0.16543716852450424       0.1673435978301145       10.234434022622096-0.020190256871034398i
0.1562630560905248        0.1248273099175397       10.000840107097135-0.020911384813148432i
0.17997859391757526       0.08722216307483177      10.000603056141252-0.014609138832172469i
0.19662251567999214       0.13079841235005635      10.186422628853578-0.015664864440424434i
0.19480054305546163       0.04530726680453399      10.000338953464578-0.0075891497756916i
0.22100155920349568       0.08890431050908189      10.132149402929015-0.010459248397323817i
0.2                       0                        10.000053380186044-1.0183458854026604E-6i
0.23702935428761363       0.016545067059576396     10.024357057176983-0.0019545886510907028i
0.23575011830127657       -0.033067357589110176    9.951061248751785+0.0038933065919576067i
-0.08316727109084406      -0.008928170447272305    9.999948900921476+0.0023930798217791554i
-0.1                      0                        10.0000533913201-1.2149118173290026E-6i
-0.09731391780489294      -0.023021759304243883    9.999784115002576+0.00616988540257631i
-0.0898901412414413       -0.0438150945176857      9.999540938008277+0.011743395569640285i
-0.07576082964451092      -0.02684888440678808     9.999739334166101+0.007196393459330938i
-0.07158468585671059      -0.04577767313619206     9.99951796873012+0.012270182422302867i
-0.0780843674158894       -0.062472646536387344    9.99932265880889+0.01674611930925304i
-0.08001090557392289      0.009415227304587178     10.000163457693695-0.0025241453709750703i
-0.09731373577189135      0.023022528751605736     10.00032245111726-0.0061689530316075105i
-0.0572098444221828       -0.05779125887453538     9.999377444953112+0.01549123379536904i
-0.06247245590538912      -0.07808451993288563     9.99913997775049+0.02093319300287613i
-0.07903775538947982      0.027727529513241107     10.000377598223386-0.007432264346276614i
-0.08989024584483046      0.043814879914886674     10.00056566647733-0.011742961568398665i
-0.06856867190241586      0.04174005024989451      10.00054146911402-0.011188365379772289i
-0.07808451993288563      0.06247245590538912      10.000783968730513-0.016746042853491055i
-0.04556059457081376      -0.07099212839442245     9.999223030244346+0.019030697769066334i
-0.043814879914886674     -0.08989024584483046     9.99900181298917+0.024100124426496408i
-0.059356846068558955     0.05832608887459728      10.000735456025557-0.015634754805457295i
-0.062472646536387344     0.0780843674158894       10.000966672350485-0.02093342410608671i
-0.023022528751605736     -0.09731373577189135     9.998914915497464+0.026091987384437118i
-0.028807793426275655     -0.07476133279750481     9.999178923367523+0.020041864402816332i
-0.011041741974707857     -0.08255348451224674     9.9990877778178+0.02213125152902307i
0                         -0.1                     9.998883593821944+0.02681087042403182i
0.008955078750616078      -0.07969284863388615     9.999121237584985+0.02136431788637139i
0.023021759304243883      -0.09731391780489294     9.998914912952927+0.02609209123009013i
-0.043833355584700855     0.06620296863974261      10.000827605528585-0.017747069262081697i
-0.0438150945176857       0.0898901412414413       10.001104816975113-0.02410003252004424i
-0.02781013063358238      0.0774042255064618       10.000958635419467-0.020750596859046462i
-0.023021759304243883     0.09731391780489294      10.00119179524472-0.02609313291970926i
0.02689085047535659       -0.07912932225465784     9.999127828572743+0.021213074266159718i
0.0438150945176857        -0.0898901412414413      9.999001809990927+0.024100227353911503i
0.062472646536387344      -0.0780843674158894      9.999139971298767+0.020933339642478458i
0.03974935762122233       -0.0687798882978241      9.999248893168714+0.018437991069818485i
0                         0.1                      10.001223157717964-0.02681257628829842i
-0.008771284023117597     0.07856526860569406      10.000972235089522-0.021062366396895762i
0.010058257003587444      0.08342293264067518      10.001029038155725-0.02236448653047785i
0.023022528751605736      0.09731373577189135      10.001191658600217-0.02609095484848539i
0.043814879914886674      0.08989024584483046      10.001104797355893-0.024099673514625473i
0.02718407321736742       0.07497207255902334      10.000930176766644-0.020098337486711134i
0.04526737166538476       0.07101410618995349      10.000883864429008-0.019036587227385833i
0.06247245590538912       0.07808451993288563      10.000966657517097-0.020933129278910015i
0.05604370651782325       0.056098343199111805     10.000709400892909-0.015037555746553062i
0.0780843674158894        0.062472646536387344     10.000783979748242-0.016746110477005114i
0.07034806760624257       0.043578658849091276     10.000562964695405-0.011680965876847088i
0.0898901412414413        0.0438150945176857       10.000565702988162-0.0117434404897217i
0.07808451993288563       -0.06247245590538912     9.999322663330465+0.016746136733245518i
0.05586676763140358       -0.05722451761589651     9.999384065368785+0.01533954775974764i
0.09731391780489294       0.023021759304243883     10.000322522758536-0.006169896549188742i
0.07444297045927654       0.026340026039710904     10.000361366796902-0.007060236589208333i
0.08222481734558168       0.006713862554193483     10.000131845293366-0.0017996346194039648i
0.1                       0                        10.000053253081411+1.1067744027579637E-6i
0.09731373577189135       -0.023022528751605736    9.999784199323397+0.00616875595333635i
0.0802405789013957        -0.0123035544999216      9.999909412036649+0.0032981660942898177i
0.06842195598000522       -0.04282355218557024     9.999552503940166+0.01147870668047652i
0.08989024584483046       -0.043814879914886674    9.99954096904455+0.011743007590628638i
0.07945828958884983       -0.029014241803555187    9.999714003381744+0.007776973594853495i
-7.617481969205135        -4.599795824742202       7.354529569793295+2.953547653670839E-5i
-8                        -4.411764705882353       7.3954281462905636+2.9185928221834223E-5i
-8                        -5                       7.352774798043068+2.9548167512176553E-5i
-7.407407407407416        -5                       7.309372719116632+2.9911496929848557E-5i
-7.568989253557476        -4.104004262156599       7.429049788105659+2.8909324323412873E-5i
-8                        -3.823529411764707       7.522654235853049+2.8074140937380353E-5i
-7.1110131850607825       -4.483210155672055       7.288447520224301+3.010364468627866E-5i
-6.814814814814824        -5                       7.178472181537349+3.097215999114955E-5i
-7.537861788177438        -3.532315787535566       7.59140954583573+2.7491497868238005E-5i
-8                        -3.2352941176470598      7.732081947657034+2.614649177093345E-5i
-7.098715959019531        -3.8299982718883276      7.423588109364453+2.9040978962359165E-5i
-2.103415271294287        -1.7355461520994593      2.5481543657439594+1.6333540373962013E-4i
-2.043445525297691        -1.827720137529849       1.6990460462322188+1.1225550196412936E-4i
-1.9955068013505064       -1.7260845081909546      2.180161269370046+1.7590122568913907E-4i
-2.132253521175323        -1.816625789895118       2.2576832400534608+1.2548848698627535E-4i
-2.108351239382444        -1.902098270728308       1.6753559284432427+8.480720748228208E-5i
-2.2035257140064393       -1.8611783264444064      2.468147306635069+1.1422129361235069E-4i
-2.1742331504369874       -1.951144787684148       1.9888849815991663+8.253869182734414E-5i
-1.8790163378084341       -1.7156925398360487      1.9186229996665176+1.9967315501823405E-4i
-1.9481325059924641       -1.6091358200364712      2.761568273596598+2.58165396372167E-4i
-1.8336486774561855       -1.5823480736904099      2.67200280171021+3.1289871674708745E-4i
-6.676950568439604        -4.09497140493427        7.23995214856618+3.061495238507331E-5i
-6.5034145823487055       -4.52780789789533        7.102769159823015+3.1611223082691906E-5i
-6.22222222222223         -5                       6.958287530475384+3.263703426499792E-5i
-7.519088379161485        -2.950440723926069       7.836741575229845+2.520885433953472E-5i
-8                        -2.647058823529412       8.019189852052174+2.3320099353687428E-5i
-7.043151343128878        -3.2453438712591107      7.623815265416735+2.7382414996823106E-5i
-2.2044770800897617       -1.7512852050613332      2.9188939151646136+1.5330070632072897E-4i
-2.308821448976307        -1.7962468615952556      3.2147215147150576+1.3731469469747875E-4i
-2.069168969243811        -1.6256295143582824      3.015920230734339+2.2183738237461646E-4i
-2.178113213573404        -1.6340429853645793      3.340697349911398+2.004249180248234E-4i
-2.024601080251321        -1.5278081744814336      3.406175178937994+2.8142975202199435E-4i
-1.9262141707251035       -1.4776634290569655      3.4484560385187284+3.4353042522926655E-4i
-1.7014550734882918       -1.5566708473036903      2.6185156101390485+3.9155839408228657E-4i
-1.7908826100222401       -1.4279537984107704      3.478919252509088+4.416018748779021E-4i
-0.24183000055530499      -0.05295522183052777     9.907593126591141+0.005762788062469535i
-0.2825186163395505       -0.030817045456216732    9.921957005632748+0.00253271293057368i
-0.269372526057573        -0.08077456762927632     9.799673957597212+0.006788752772500919i
-0.3128612238622501       -0.06706390747960553     9.795174696694923+0.004331380552895743i
-1.5475151999429335       -1.5430454341042372      2.5328764971950375+4.939444839394689E-4i
-1.6158354260782035       -1.3896798500011174      3.4652663434324187+5.920346540095211E-4i
-6.519944654282603        -3.5558270666109295      7.348658450239243+2.99956755386468E-5i
-2.2930178439778155       -1.9496690437022715      2.7164522647455693+9.88174955203568E-5i
-2.198997283401753        -2.0392286910470903      2.0197072028622234+6.914221841515212E-5i
-2.4356551288421633       -1.8480701837915736      3.596932005901231+1.2409563886112593E-4i
-1.9344882828222516       -1.836582299783143       1.153721656840858+9.989536382509042E-5i
-2                        -1.95                    0
-2.0989680336136          -1.9987302125361828      1.264028423365321+5.087915848424777E-5i
-2.1143025806659588       -2.0964697485593624      1.4397191290090925+4.491549284562634E-5i
-1.757166532584985        -1.701063394477055       1.7967199422628293+2.4035702864112424E-4i
-1.6265078629304535       -1.6937575851430946      1.6948319143546577+2.897454920385907E-4i
-1.4875430527509512       -1.7016219506632555      1.5455239213862104+3.3564570542035703E-4i
-1.4066339526139071       -1.5899702767033408      2.159072017990727+5.307374664611172E-4i
-1.8150210531906703       -1.8326153205598839      0.9457414824613846+1.098386550725667E-4i
-1.3332543962403594       -1.700533777338563       1.4807358461222506+4.099433880873508E-4i
-6.1954554120760505       -4.0608830791983666      7.061512526573767+3.216346677528979E-5i
-5.9174094853454555       -4.528803583512257       6.838776031014651+3.357814114786723E-5i
-5.629629629629637        -5                       6.646659033645666+3.472273450855697E-5i
-7.518409648733784        -2.358297117352814       8.164308915981183+2.191092955471818E-5i
-8                        -2.0588235294117663      8.376687695601643+1.9535962600298233E-5i
-7.032278150160747        -2.6551445272457523      7.9179331353183136+2.4691242624660378E-5i
-6.538847383670837        -2.9429843489962373      7.629986031553689+2.7826213590506126E-5i
-6.113749968614284        -3.1827233752645436      7.343988467282648+3.069964094688174E-5i
-2.3020237312389042       -1.6485640858193091      3.715474469511991+1.7976522207061152E-4i
-2.4057619925323492       -1.7111385649417912      3.866237357799444+1.5405725445560747E-4i
-2.5448726660363032       -1.7082840064895817      4.33527859149013+1.4367454818095041E-4i
-2.1306940681933098       -1.5116395907000602      3.766606593783717+2.5813281922411156E-4i
-2.2693181145066306       -1.5098452088401642      4.160868037588684+2.2537565703252015E-4i
-1.7403026502058772       -1.23482678069208        4.4238734002544815+5.911362669241655E-4i
-2.0453157947309215       -1.406469398645222       4.06317372841502+3.28343741275208E-4i
-1.9147043558974877       -1.3122653090774863      4.2797150816227925+4.3159729936401284E-4i
-0.34457749467963594      -0.013741342039386978    9.954433683288245+7.628312099771593E-4i
-0.2863031985163553       0.01792878178260534      10.046376523807368-0.0014442164338892953i
-0.2479519575487239       -0.12768728168123564     9.688359309386604+0.010912112291576055i
-0.30917214730665793      -0.119002517565122       9.620717560606671+0.007159192866166036i
-0.3748029627264978       -0.08982224224517106     9.671497707728873+0.003959385382624837i
-0.4145387952382994       -0.015059987481498362    9.942299897850445+5.706027138152292E-4i
-0.47271444377292304      -0.08060510743141822     9.667770712258111+0.002255108370028101i
-0.4782486895564626       -0.0017446278898454806   9.9929077355084+4.940921203555428E-5i
-1.5273729645976155       -1.18679807756917        4.458266594456879+8.363637405654949E-4i
-1.4026076418732196       -1.4094440974404496      3.1755162806128423+7.692707009339274E-4i
-1.2704359227865185       -1.550436211633779       2.315974355121677+6.967305007587353E-4i
-1.2009477227623337       -1.6920653572969186      1.4878440423746457+4.982869634538906E-4i
-5.9252521815091805       -3.606735016881874       7.07145302408457+3.264377850734164E-5i
-2.4378664506054535       -2.0012651821140963      3.3023841451680425+9.806877501716437E-5i
-2.2097447257258205       -2.1402723177954552      2.0839734087572057+5.954607003945309E-5i
-2.1344988264167197       -2.1822265463637742      1.7180604638724888+4.591965686014542E-5i
-2.3158727121986984       -2.078951516741306       2.6552117793087917+7.916855863118928E-5i
-2.620777021445263        -1.910705847462847       4.1236102836817095+1.107351456207552E-4i
-1.8888416738200915       -1.9499999999999997      0
-2.204577828280293        -2.2484316272536313      2.152056947441879+5.2667448547308016E-5i
-2.10062657168254         -2.257575628494126       1.7106401517856595+4.0680356238120136E-5i
-2                        -2.05                    0
-2.046548335607925        -2.170356153309678       1.2165887176510903+3.181558477030092E-5i
-1.6873501906358765       -1.8252960003292025      0.8786475477597558+1.3340052891898174E-4i
-1.5505826252802593       -1.8243126545711978      0.8128294796916918+1.5885683711820068E-4i
-1.4085014409293055       -1.8252003912916346      0.7620143239411054+1.8855910823972714E-4i
-1.7577197014044759       -1.95                    0
-1.266908117065196        -1.823485302628321       0.7430644241003085+2.2764046423456866E-4i
-1.127621828671668        -1.8231082436979362      0.7256582767485334+2.6912194696852073E-4i
-1.0626731057391061       -1.699484019442015       1.415046137346277+5.689121203137915E-4i
-5.622071543087627        -4.061607283953832       6.7592361932988245+3.4553996037084475E-5i
-5.329573760446191        -4.528852519549517       6.482775053600087+3.5870146255570663E-5i
-5.037037037037043        -5                       6.242641707474966+3.692632364040904E-5i
-7.52050327436616         -1.7679728856368968      8.558473703580157+1.761528282838751E-5i
-8                        -1.4705882352941193      8.794005941252031+1.4807479526338383E-5i
-7.037471963306144        -2.0664771598697294      8.28988245228433+2.0905787592412777E-5i
-5.6194457002067395       -3.133718690964597       7.113108546392108+3.3484424088755636E-5i
-6.536332243122383        -2.3662869925136705      7.971397256366646+2.4801454705213537E-5i
-5.98762794271612         -2.6525802610834184      7.582172544684261+2.9411469329668252E-5i
-2.4369904903098476       -1.5523930672059434      4.481489511716746+1.844425582635545E-4i
-2.6057612083064177       -1.5516123389540224      4.939994141381064+1.6042870903935309E-4i
-2.7642902440614656       -1.6757829095896835      5.024971794522291+1.2919325699504836E-4i
-2.1957397422842475       -1.3595320400134678      4.607081005848229+2.8789191967804186E-4i
-2.372326247055965        -1.3528271481321004      5.028066576576303+2.3600257226498566E-4i
-1.683246687014657        -0.9925320906283867      5.5576940094565295+7.323758296320518E-4i
-1.908401405810891        -1.091240695786359       5.32816321712179+5.066309545967411E-4i
-2.07915348953935         -1.2186514924435827      4.998011778393148+3.7303848299546054E-4i
-0.37811725467140456      0.038287743738996606     10.138622443767735-0.00173747243349004i
-0.3255280168923718       0.05556898266528723      10.176369770296988-0.0033669353935782387i
-0.26737299841105255      0.072654349732986        10.174766361218218-0.006293234339446987i
-0.5671218354035695       -0.03190137147191452     9.861140490977034+6.238961896369628E-4i
-0.5203372052706837       0.04755479144536852      10.202254065555717-0.0011110888466091338i
-0.44508930504208777      0.06337306052602004      10.253959089387108-0.0020302851539263996i
-0.2151664626384633       -0.17444001626446984     9.579960116306752+0.015118894822931517i
-0.2747297275847299       -0.17605061583816134     9.448028960947708+0.010924727875678294i
-0.3508119136259299       -0.16754745398492088     9.382616033747782+0.007255531825776093i
-0.43722074148268886      -0.16306977462004008     9.33466082483494+0.0048305833603678495i
-0.540772790375903        -0.14520418875593527     9.369314092774689+0.002927712617054759i
-0.6442489396009783       -0.13320742508976602     9.400917421409503+0.001896724717037463i
-1.4257981225725747       -0.9300505219941101      5.679686632719089+0.0011075169451936157i
-1.2967425854455734       -1.1638637326914003      4.42424139445644+0.0011899903801260642i
-1.1864205534763497       -1.3808440154660717      3.2167300719423992+0.0010709866866455886i
-1.1221469865749192       -1.5400241720446917      2.319545148902875+8.574483816324205E-4i
-0.9811482543151167       -1.590892275699835       2.002989676106666+8.875602690153314E-4i
-0.9086611729584856       -1.6961595895271246      1.4100506972350608+6.803634194577252E-4i
-5.331690591637107        -3.5884002880588155      6.723228328455465+3.584028825759584E-5i
-5.047956593272735        -3.093495988559296       6.7492220160947545+3.7736279705780915E-5i
-2.88206292485942         -1.9254822688926527      4.836651308033827+1.00163331699423E-4i
-2.5550398504563483       -2.092761100405282       3.6299042698087094+8.977300924152518E-5i
-2.442356271275666        -2.1666938869734413      3.149289637588282+7.839301023550344E-5i
-2.3213778560904728       -2.2146652103053204      2.643109857646303+6.60203097215941E-5i
-2.726013955432697        -2.1204920410471444      4.142582036640252+8.818327765940886E-5i
-2.3005900050668675       -2.341928140172969       2.610157421721532+5.691176881755567E-5i
-2.180380162972811        -2.354917364848545       2.18636263682013+4.7251596363256574E-5i
-2.077996930280164        -2.366967220066143       1.8513916083686812+3.875570278540085E-5i
-2.0013141579202207       -2.274201383632283       1.3681503442633913+3.0365051606253025E-5i
-1.8888416738200915       -2.05                    0
-1.939575259125533        -2.1655830913182994      0.7470314425315779+1.752868631342607E-5i
-1.6171055386819164       -1.95                    0
-1.4764876657530528       -1.95                    0
-1.3358697928241892       -1.9499999999999997      0
-0.9853001914903912       -1.823578677836544       0.7091866078512612+3.1374075790480837E-4i
-1.195251919895326        -1.95                    0
-1.0546340469664628       -1.95                    0
-0.8441895756727398       -1.8227082917504935      0.7045393182568138+3.6412543641667973E-4i
-5.033045980112118        -4.055976482150932       6.355949147714729+3.730845719398716E-5i
-4.737399901404758        -4.529909952543881       6.031134818104111+3.813366275988483E-5i
-4.44444444444445         -5                       5.749164127587349+3.880577458399126E-5i
-7.522664705770968        -1.1784690170906695      9.006731051160001+1.2380634862152187E-5i
-8                        -0.8823529411764723      9.25717759968755+9.262126919426505E-6i
-7.043818409098872        -1.474761007429833       8.728889870636829+1.5980853326124733E-5i
-6.565595151101111        -1.7723634107869355      8.408403870302985+2.025555007274911E-5i
-5.36435055071105         -2.6280493007902166      7.261895210447439+3.4181530959324376E-5i
-4.759562368806341        -2.5371190822421332      6.88369804216501+4.069888742995996E-5i
-6.081234835480203        -2.04918911602856        8.046908034917282+2.5146987139801598E-5i
-5.630620573858755        -2.2155089785708846      7.7200176862770205+2.9793903051780948E-5i
-7.522859087574403        -0.5888103367212633      9.493761907805265+6.396648084888277E-6i
-8                        -0.29411764705882604     9.749240996988982+3.1565899018275297E-6i
-2.5649627199410405       -1.378775317094452       5.365674437107604+1.8852419381030114E-4i
-3.004348920525829        -1.708824069415675       5.504987305984921+1.0784126749794738E-4i
-3.2002051932268274       -1.9056391219714082      5.563007180051053+8.715887398354833E-5i
-2.76842907258714         -1.4192912037899652      5.678229291522828+1.510149286434684E-4i
-2.923779894669885        -1.506280632123037       5.77291057069886+1.2645751828496932E-4i
-2.2783072470624584       -1.1592737434144011      5.588812298948745+2.950783356100179E-4i
-2.5033763622884817       -1.1427022235449555      6.032314115866648+2.227471396351779E-4i
-1.1453831519485242       -0.16661437403913198     9.228941525475475+6.360259999077821E-4i
-1.3230941395233562       -0.016434535800234594    9.925283013995214+4.465844328361361E-5i
-1.409439712963328        -0.33902295011137673     8.462687011281629+7.04029570142929E-4i
-1.5927323446381894       -0.6997699018347003      6.870564951121131+8.150921114036788E-4i
-1.9050489092456042       -0.8122918884560983      6.578357246541638+5.157366132067883E-4i
-2.12796032473546         -0.9768660352592371      6.108629826618105+3.7721484939400143E-4i
-1.6469756703415956       -0.015470847050934981    9.932582548951666+2.1800377807832296E-5i
-1.6130858733881697       0.28165028977179646      11.238206596794162-4.12009976411183E-4i
-1.8619790451859939       0.25433637700476686      11.063893413843855-2.4240036950416862E-4i
-0.3728991064935107       0.10143176229043896      10.371883381245594-0.0044466501465554i
-0.3037631422236038       0.1168740231583325       10.364972831204275-0.007290898560998759i
-0.24604087843879024      0.12462664659101794      10.297013369777995-0.010896164147751476i
-0.6984994110001138       -0.004267116864755019    9.98076649048764+5.401793221803515E-5i
-0.7763624171346803       -0.1338130559025393      9.384184388634845+0.0012771424434588861i
-0.8413252907775007       0.014691074818346533     10.067986717848385-1.207692553283728E-4i
-0.9515845031745138       -0.1572534135230555      9.268861079064337+9.388175774309753E-4i
-0.6023325596720952       0.07578712815141417      10.335490499712572-0.0012856096176684607i
-0.5088936366792033       0.1322597679111684       10.564047299201386-0.0030471504803307246i
-0.4243990869813588       0.15493926525518992      10.622992887363033-0.004912105564995933i
-1.4142643574901301       0.1918540819064413       10.867219783289805-4.182304414702968E-4i
-1.0379100983694953       0.060961363708218426     10.283120793685663-3.031609600498845E-4i
-1.1721072514506243       0.2274898545374879       11.052529967865915-8.00853174960312E-4i
-0.17399191952083878      -0.21675127701745378     9.47351357198505+0.01865770328118145i
-1.2719557330208544       -0.6609137274316801      6.921428401240525+0.0013828467804350936i
-0.6931731371099658       -0.22873468708302286     8.953505765083456+0.0025889504082989376i
-1.0583226019516327       -0.4000212482922113      8.129072908163103+0.0016045628771541257i
-0.8268577259418911       -0.2953882701566728      8.62480143977979+0.0021954796917977855i
-0.5958205892893428       -0.2453062259170043      8.898068627473348+0.0036533305083769896i
-0.23317155224708724      -0.2318859091307538      9.265147688162692+0.014163864418034492i
-0.30554624685025195      -0.24277721838805003     9.101238596612255+0.010429164817111083i
-0.39167509005353623      -0.24943910270234662     8.982341297166109+0.0074650778918528725i
-0.49081735389053155      -0.25029715229350835     8.915055719187315+0.005221566115529993i
-1.1642676824186462       -0.9159753719116601      5.6336334797539935+0.0016782948239940348i
-1.06822118405365         -1.1668315319229934      4.313052979179826+0.00163381454478815i
-0.7051621669159317       -1.8237163764893456      0.6925321703145756+4.0895057226413917E-4i
-0.7785985733759144       -1.6927931195496668      1.41469931695017+7.821994610300812E-4i
-0.9713008385529495       -1.4098994260738469      2.9894274230783995+0.0013307367203998365i
-0.8447900907382275       -1.5508010730635684      2.1989686172098746+0.0011379609782299052i
-0.5633552002196539       -1.826285455516024       0.6741027767406763+4.462003019620673E-4i
-0.638650922938674        -1.700511392119888       1.362246255199367+8.546475015851711E-4i