% Model:              VLR_3_01V03.mph
% Version:            COMSOL 5.5.0.292
% Date:               Jun 30 2020, 18:41
% Dimension:          2
% Nodes:              1512
% Expressions:        1
% Description:        Electric potential
% Length unit:        cm
% x                       y                        V2 (V)
-0.2                      0                        9.999184077688756+0.004667986568943409i
-0.24031265690869333      -0.014262896256485007    9.98658121582472+0.004417291588652862i
-0.19480050445325514      -0.045307432776061314    9.999184077688765+0.004667987008969523i
-0.1799784452820661       -0.08722246977614395     9.999184077688767+0.004667987416755019i
-0.222939853387187        -0.08951535597541033     9.920573254795103+0.004418707472346171i
-0.19480055158252196      0.04530723014205566      9.99918407768876+0.004667986128778482i
-0.23628653473404057      0.036822147405189576     10.030730847724975+0.004426150016575438i
-0.15626273723914907      -0.12482770906545015     9.999184077688765+0.004667987784059714i
-0.19694837301350052      -0.13059099058534115     9.892519525926092+0.004439618557149186i
-0.1799795388163249       0.0872202132963627       9.999184077688756+0.004667985720978692i
-0.2213545016748707       0.08500231821613298      10.069328703951811+0.004436666694629086i
-0.1654037520831123       -0.1682210614051599      9.861897236627497+0.004440028224993945i
-0.1248260106301913       -0.15626409398883467     9.999184077688748+0.004667988092618408i
-0.1266660894306307       -0.19776043254542663     9.840330646342368+0.004444454765524428i
-0.08722051950937931      -0.1799793904215535      9.99918407768873+0.0046679883265331006i
-0.15626441318037387      0.12482561104754661      9.99918407768876+0.004667985353660083i
-0.1975700918224529       0.12858895564630923      10.102867661598692+0.004443075619864209i
-0.08275128358056867      -0.22052655458262596     9.818135238030495+0.004438775567972643i
-0.04530739583334546      -0.194800513045527       9.999184077688723+0.004667988473276788i
-0.16643177159415118      0.16621014293660008      10.132705997765518+0.004444239761124623i
-0.12482824553099213      0.15626230869168145      9.99918407768876+0.00466798504510869i
-0.034168343078647634     -0.23336120473486988     9.805555416295539+0.004435981384781574i
0                         -0.2                     9.999184077688724+0.004667988524995393i
-0.08722323530655218      0.17997807428311324      9.999184077688763+0.004667984811251556i
-0.1288852438857933       0.19757184426206498      10.161547483715934+0.00443833758445459i
-0.04530842701600124      0.19480027320652224      9.999184077688758+0.004667984664522506i
-0.08701964678403902      0.22124688046512922      10.189455339650495+0.0044257800631980196i
0                         0.2                      9.99918407768876+0.0046679846128212365i
-0.014300668795287947     0.23507938947288748      10.192988718463281+0.00443778628864474i
0.0231008581594535        -0.24462026129132308     9.75516397110303+0.004378122222800807i
0.045307432776061314      -0.19480050445325514     9.99918407768872+0.0046679884733593045i
0.08722246977614395       -0.1799784452820661      9.999184077688728+0.004667988326541306i
0.07972260791175484       -0.22450651711745928     9.80402199835923+0.0044226688037402i
0.12603242591321814       -0.19902433403732114     9.836686040784258+0.0044401152539781654i
0.12482770906545015       -0.15626273723914907     9.999184077688724+0.004667988092632076i
0.16564930036173228       -0.16707533355789073     9.86475363230146+0.004443828029012833i
0.15626409398883467       -0.1248260106301913      9.999184077688717+0.004667987784088681i
0.19865160157563805       -0.1278701060103224      9.894934410852114+0.004440108156816405i
0.1799793904215535        -0.08722051950937931     9.999184077688714+0.004667987416770501i
0.2215070660192242        -0.08264679655543176     9.931975497540797+0.004440668813341976i
0.194800513045527         -0.04530739583334546     9.999184077688723+0.0046679870089524i
0.04530839156627776       0.1948002814517393       9.99918407768877+0.004667984664418445i
0.03370322221214782       0.23297154036555806      10.190587115356793+0.004438680510135699i
0.08164661403477322       0.2201310913495266       10.176913834571655+0.004443261681529379i
0.08722128626596289       0.17997901883861617      9.999184077688772+0.004667984811188006i
0.12605682309157365       0.19775025129283286      10.156828239448624+0.004446447706133869i
0.12482654379450844       0.1562636680880034       9.999184077688769+0.004667985045115901i
0.16386255916855003       0.16613295436659         10.127101969006667+0.004455150933440167i
0.1562630560905248        0.1248273099175397       9.999184077688778+0.004667985353677481i
0.17997859391757526       0.08722216307483177      9.999184077688751+0.004667985721003778i
0.19682415355768237       0.13007943455284018      10.104551590187464+0.004441868783752177i
0.19480054305546163       0.04530726680453399      9.99918407768874+0.004667986128781453i
0.22144292160950022       0.08763593685253641      10.073091291964973+0.004430599992180022i
0.2                       0                        9.99918407768872+0.004667986568826088i
0.2385751434057074        0.013490428009715403     10.010704399033221+0.0044273588946891805i
0.23521310790768296       -0.03465576469951209     9.970289628922293+0.004434029173353195i
-0.09731391780489294      -0.023021759304243883    9.999184077689279+0.004667986927877196i
-0.0898901412414413       -0.0438150945176857      9.999184077689257+0.004667987252364739i
-0.07576082964451092      -0.02684888440678808     9.999184077689451+0.004667986987842016i
-0.08316727109084406      -0.008928170447272305    9.999184077689437+0.004667986708169895i
-0.1                      0                        9.99918407768929+0.004667986568806782i
-0.07158468585671059      -0.04577767313619206     9.999184077689398+0.0046679872833460395i
-0.0780843674158894       -0.062472646536387344    9.999184077689254+0.004667987543916154i
-0.08001090557392289      0.009415227304587178     9.999184077689454+0.0046679864219420315i
-0.09731373577189135      0.023022528751605736     9.999184077689268+0.004667986209930782i
-0.0572098444221828       -0.05779125887453538     9.999184077689419+0.004667987471206624i
-0.06247245590538912      -0.07808451993288563     9.999184077689254+0.004667987788240195i
-0.07903775538947982      0.027727529513241107     9.999184077689437+0.004667986136208959i
-0.08989024584483046      0.043814879914886674     9.999184077689266+0.004667985885412348i
-0.06856867190241586      0.04174005024989451      9.999184077689462+0.00466798591736619i
-0.07808451993288563      0.06247245590538912      9.99918407768927+0.004667985593837164i
-0.059356846068558955     0.05832608887459728      9.999184077689419+0.004667985658212352i
-0.062472646536387344     0.0780843674158894       9.99918407768926+0.004667985349491674i
-0.04556059457081376      -0.07099212839442245     9.999184077689396+0.004667987677664872i
-0.043814879914886674     -0.08989024584483046     9.99918407768925+0.00466798797327124i
-0.023022528751605736     -0.09731373577189135     9.999184077689245+0.004667988089768347i
-0.028807793426275655     -0.07476133279750481     9.999184077689423+0.004667987736829079i
-0.011041741974707857     -0.08255348451224674     9.999184077689392+0.004667987858806268i
0                         -0.1                     9.999184077689236+0.004667988131839619i
0.008955078750616078      -0.07969284863388615     9.999184077689412+0.004667987814084591i
0.023021759304243883      -0.09731391780489294     9.999184077689213+0.0046679880897773866i
0.02689085047535659       -0.07912932225465784     9.999184077689373+0.004667987805144492i
0.0438150945176857        -0.0898901412414413      9.999184077689206+0.004667987973279352i
0.062472646536387344      -0.0780843674158894      9.9991840776892+0.004667987788247672i
0.03974935762122233       -0.0687798882978241      9.999184077689412+0.004667987643195208i
-0.043833355584700855     0.06620296863974261      9.999184077689444+0.004667985534878848i
-0.0438150945176857       0.0898901412414413       9.999184077689256+0.004667985164476503i
-0.02781013063358238      0.0774042255064618       9.999184077689426+0.004667985359578683i
-0.023021759304243883     0.09731391780489294      9.99918407768928+0.004667985047906336i
0                         0.1                      9.999184077689291+0.004667985005803859i
-0.008771284023117597     0.07856526860569406      9.999184077689462+0.004667985341269735i
0.010058257003587444      0.08342293264067518      9.999184077689423+0.004667985265330525i
0.023022528751605736      0.09731373577189135      9.999184077689268+0.004667985048034889i
0.043814879914886674      0.08989024584483046      9.999184077689268+0.00466798516449963i
0.02718407321736742       0.07497207255902334      9.999184077689454+0.004667985397607591i
0.04526737166538476       0.07101410618995349      9.99918407768942+0.004667985459734309i
0.06247245590538912       0.07808451993288563      9.99918407768927+0.00466798534951154i
0.05604370651782325       0.056098343199111805     9.999184077689462+0.004667985692959315i
0.0780843674158894        0.062472646536387344     9.999184077689266+0.004667985593835817i
0.07034806760624257       0.043578658849091276     9.99918407768942+0.004667985888702586i
0.0898901412414413        0.0438150945176857       9.99918407768927+0.0046679858853860175i
0.07808451993288563       -0.06247245590538912     9.999184077689206+0.004667987543912882i
0.05586676763140358       -0.05722451761589651     9.999184077689408+0.004667987462386759i
0.09731391780489294       0.023021759304243883     9.999184077689277+0.004667986209875403i
0.07444297045927654       0.026340026039710904     9.999184077689447+0.00466798615782427i
0.08222481734558168       0.006713862554193483     9.999184077689415+0.004667986464121013i
0.1                       0                        9.999184077689259+0.004667986568937988i
0.09731373577189135       -0.023022528751605736    9.999184077689232+0.004667986927805926i
0.0802405789013957        -0.0123035544999216      9.999184077689423+0.004667986760863268i
0.06842195598000522       -0.04282355218557024     9.999184077689405+0.004667987237292008i
0.08989024584483046       -0.043814879914886674    9.999184077689211+0.00466798725233618i
0.07945828958884983       -0.029014241803555187    9.999184077689383+0.004667987021602728i
-7.615954507085908        -4.601943745725873       8.97214598855656+0.0015708825528095293i
-8                        -4.411764705882353       8.98859622307945+0.0015716626134210877i
-8                        -5                       8.97157784424273+0.001570850036895421i
-7.407407407407416        -5                       8.954236122841392+0.0015700090279018146i
-7.5613519429613305       -4.114743867074957       9.000793406102316+0.001572269155723618i
-8                        -3.823529411764707       9.039211629319492+0.0015740004391057289i
-7.1110131850607825       -4.483210155672055       8.94595742934574+0.0015696489648254187i
-6.814814814814824        -5                       8.90176209364032+0.001567378557935235i
-7.538357510956277        -3.5332976867899877      9.066525769299405+0.0015753108829953662i
-8                        -3.2352941176470598      9.122092260812023+0.0015775750982710028i
-7.10125726582732         -3.836860972972144       8.999685469197047+0.0015724250139570776i
-6.679641224056662        -4.093254424058561       8.927609089259997+0.0015690135927051863i
-6.50392431983682         -4.527843789527788       8.871625089410683+0.0015659274063269338i
-6.22222222222223         -5                       8.812892328711671+0.0015626404845872574i
-7.518496118723587        -2.9515122004541974      9.163380518856208+0.0015794350446978864i
-8                        -2.647058823529412       9.234930327585909+0.0015819324002084281i
-7.041393794036926        -3.2485629326137384      9.079592299795022+0.0015763786943520685i
-6.535376210249234        -3.5527076022753312      8.974484253489193+0.0015719882639903622i
-6.190689275127745        -4.060855353852341       8.855290280645105+0.001565616566800426i
-5.921959967161484        -4.526732096148679       8.765967378158381+0.0015602261709061586i
-5.629629629629637        -5                       8.685637260000465+0.0015552365510205014i
-7.518356345028603        -2.3588539004933224      9.291891314666083+0.0015842132707405527i
-8                        -2.0588235294117663      9.374374847268935+0.001586500510026998i
-7.032279713003348        -2.654214275677598       9.19686594525269+0.0015815591422447212i
-6.539765029639394        -2.9299465359668613      9.087745651300125+0.0015780731346964631i
-6.120364798293256        -3.176021801533737       8.97554995142592+0.0015736725992932413i
-7.520642732162843        -1.768291168490324       9.445192478586437+0.0015888831443861054i
-8                        -1.4705882352941193      9.53599267821139+0.0015906575397804884i
-0.24482755674263532      -0.05503617403239949     9.941988664225551+0.004360790314280632i
-0.2902859444984637       -0.0346752260674946      9.946852404900106+0.004155255076396647i
-5.929598055040769        -3.610039818846264       8.863335039986795+0.0015673051428484223i
-5.625082846086421        -4.059206433873252       8.735949112967335+0.0015594601453914278i
-5.334866422428841        -4.524610726034406       8.620834660025379+0.0015515885252342084i
-5.037037037037043        -5                       8.517590901982928+0.0015443555821589821i
-7.037813392615945        -2.067302648975994       9.342005388804331+0.0015869878544144229i
-6.537853597975636        -2.369107435561473       9.219574667349873+0.0015843260504724759i
-5.613526748735444        -3.133214979963935       8.884100161436029+0.001571109460537958i
-5.987090896799467        -2.6556787932176293      9.069961741568592+0.0015801952885673505i
-7.522874947768559        -1.178685273108457       9.618242513192136+0.0015928003317476514i
-8                        -0.8823529411764723      9.714328282141631+0.0015938184209074906i
-7.5234951345034204       -0.5895293325887531      9.805077435874153+0.0015954096985579204i
-8                        -0.29411764705882604     9.903074113086983+0.0015955261808651355i
-7.043994596698077        -1.4754846157141415      9.512074548606988+0.001591988257635325i
-0.2885643161636315       0.024737702136644328     10.035913012018575+0.004168006984150743i
-0.35945306358525475      -0.0015045697053784376   9.996268576452012+0.0038788833240669214i
-0.2738226094352419       -0.08624641334664457     9.872872437356628+0.004178129934054492i
-0.33473546415532524      -0.07573900520070441     9.858002109893834+0.0039389605632914266i
-0.24775536750690588      -0.13368679408177905     9.80959679583073+0.004201873274969039i
-5.333593319419933        -3.584270219043363       8.727389365251566+0.0015612397862160095i
-5.039788696650177        -4.048731641056767       8.57432930840996+0.0015501785056312998i
-4.742106250919545        -4.523628254384542       8.432269922270704+0.0015389795918537691i
-4.44444444444445         -5                       8.306471665495376+0.0015289356766153414i
-7.524061859831408        -9.506260646167386E-4    9.998900292132747+0.0015963274908676257i
-8                        0.2941176470588207       10.095356204156262+0.0015955297950872225i
-7.525076714226414        0.5872508682247994       10.192596585219286+0.0015954203444497772i
-8                        0.8823529411764666       10.28410185745466+0.0015938291314163714i
-5.044145391472228        -3.09105073169472        8.74706325228412+0.0015667963266059878i
-6.566787942312745        -1.773636243548667       9.390246626129725+0.0015908392400101456i
-6.084035448682757        -2.0518878192884693      9.253301118905013+0.0015889481200437189i
-5.353209999417251        -2.6390875498313067      8.94706349824088+0.0015787464652404042i
-5.630412531389698        -2.218336228777168       9.13045685907279+0.00158727814522212i
-7.04669996069329         -0.8853436342327976      9.699441770167072+0.001595796022421896i
-7.0484801998600615       -0.2968202211519687      9.897442859466608+0.0015978538204591893i
-6.569148604635087        -1.1796487259286101      9.580690885586831+0.001596359806199004i
-0.40508188350002283      -0.058060823136158304    9.875841346700414+0.0037058240447253206i
-0.4504564006521756       0.010282615803571796     10.022036776302821+0.0035801946614651245i
-0.4073562333422682       0.07175677474479884      10.152651086722862+0.0036911622559167192i
-0.3344126865444396       0.0732936727691376       10.135486335242524+0.003942410616621599i
-0.2723065851177734       0.08069042984437158      10.114935377461961+0.004192881341989969i
-0.3067468944482761       -0.13279978411776652     9.756940452565189+0.003970821093031366i
-0.3729328194816328       -0.12644021409081688     9.735353354076523+0.003752890092383957i
-0.4375616668157002       -0.1182595034660168      9.734518446338301+0.0035681666566142875i
-0.21407714082178683      -0.1778968824606613      9.750853795545867+0.004213758933721458i
-0.2720426986609584       -0.18589034263538448     9.662806207269817+0.003985162942151596i
-4.749418178534554        -3.5633777088252447      8.552164224157158+0.0015523241750937736i
-4.457678718942812        -3.08138393950536        8.555051376644208+0.0015590905427563424i
-4.448024696168004        -4.045284346616853       8.366293330367496+0.0015365293547258208i
-4.148476208788758        -4.523142812599228       8.198830025983995+0.0015212292839551233i
-3.8518518518518565       -5                       8.051140768713612+0.0015077451316861813i
-7.525434843109821        1.174477871979408        10.378846892152213+0.0015928339339371627i
-8                        1.4705882352941124       10.462436996495613+0.0015906749983801785i
-7.049941620398979        0.291250483532136        10.099069684613182+0.0015978601648146509i
-7.052758162443923        0.876675819610382        10.295959717484594+0.0015958252303091872i
-4.760211600420913        -2.550727980234716       8.814658219288077+0.0015785011171138888i
-6.09068240349043         -1.4668249300958645      9.444612179180401+0.001596631665567039i
-5.611472371188689        -1.7360195436502694      9.289113518249279+0.0015960626859918244i
-5.131572410915187        -2.074971743630432       9.07676876374915+0.0015916662302734744i
-4.723518155371189        -2.1148163956973187      8.959422653224053+0.0015920523251655692i
-6.57250442480762         -0.5920817115506403      9.785075459473523+0.0016000122680346837i
-6.5751432487009165       -0.005022296197676529    9.997387711615502+0.001601300723397625i
-6.096695784349031        -0.8825097728876092      9.656723108986794+0.0016025391507703505i
-0.48587661029844426      0.08243914221403019      10.188571336031218+0.0034612954770379466i
-0.49987853322602         -0.06229180563034596     9.855365945228655+0.003433755110597104i
-0.5450762502772805       0.029540849962517917     10.068581415284521+0.0033311640271530964i
-4.169279599486121        -2.620403905555908       8.584158507078483+0.001571437486904965i
-0.4412494298323515       0.1343927649847939       10.302426291206778+0.0035440511472664346i
-0.37268920914094383      0.13163702240263814      10.274660894616652+0.0037475638906147375i
-0.30606673453073546      0.1330318048213739       10.24145484792116+0.003972962872174058i
-0.24710699153740298      0.13198040579049508      10.184461582486675+0.004208637761491746i
-0.33923812799345576      -0.18916718797021317     9.60484604391501+0.003765006748087583i
-0.414240500067661        -0.18467685609053267     9.582816298889087+0.0035611322306611025i
-0.4962748290131984       -0.16254400836656863     9.617772111035164+0.0033804039786410668i
-0.17332100006628814      -0.21618489078939468     9.697785068803652+0.00421609568441278i
-0.22898439677039545      -0.23388526692995937     9.5751677670266+0.003988081750937422i
-0.2955204061154839       -0.2484777361189621      9.477820900314244+0.003764803920828503i
-0.1264080846351218       -0.2460699536193298      9.654644990418584+0.004214735412813403i
-4.156191796408954        -3.5673618182360105      8.322185450390142+0.001538327689664383i
-3.8667435458763477       -3.0951272052286596      8.302307308343325+0.0015459106150849838i
-3.573700138803041        -2.6190396484235974      8.313196644581872+0.0015620274729430679i
-0.4576508824523324       -2.0023767041059797      3.6130889741304237+8.913427448653913E-4i
-0.47128688301728133      -2.1017958557924312      3.681295857221699+8.836957396399772E-4i
-0.36259012521661504      -2.0476963661195096      2.925141194176357+7.15390752597948E-4i
-0.5760229911047343       -2.036864974411963       4.236021670555676+0.0010269471890975194i
-0.5422034885578865       -1.9408045805778287      4.166170648736653+0.0010366750457195186i
-0.6612243442384559       -1.9383791318049817      4.71128899610904+0.0011582410624921772i
-3.854793269432092        -4.0469371262065135      8.109538004515498+0.0015170187196002648i
-3.5554484510484152       -4.52391634121537        7.9203224101143155+0.0014970081669536362i
-3.259259259259263        -5                       7.753389734554754+0.0014796341367394536i
-0.3639558033588264       -2.1435593753967046      3.071133149666616+7.298493642775814E-4i
-0.26896054470680764      -2.096811308239134       2.18843850213886+5.251838083776868E-4i
-0.28744253027958244      -2.183682152761411       2.693155661901982+6.311667261356529E-4i
-0.1985691031164934       -2.169667381143199       2.0351326558726703+4.742333320803468E-4i
-7.526386518122938        1.7594129013617894       10.550611305231584+0.0015889641712222224i
-8                        2.0588235294117583       10.624054493167744+0.00158652412624956i
-7.5260360532035735       2.343066846439074        10.702488508249417+0.001584367553920758i
-8                        2.647058823529404        10.763498471244944+0.001581961361233554i
-7.0544810519162215       1.4606717709833195       10.481357113936651+0.0015920883574359632i
-6.579291949282602        0.5803498282098052       10.208960896991508+0.0016000183150586163i
-6.5833875191965046       1.1646828104934963       10.411864142459622+0.0015964094055183672i
-4.365676077788989        -2.15308034259902        8.835116523169175+0.0015916732907859468i
-5.622182660221671        -1.167411938370004       9.506048642312761+0.0016049074333580307i
-5.150398656384098        -1.4570831002901585      9.322214446625347+0.0016059859922572491i
-4.6782423901660675       -1.708282629297274       9.11639628206422+0.0016054384118105798i
-6.099857226839624        -0.300396878367676       9.88109671109104+0.0016057647967705304i
-6.105224050388962        0.28392367157919124      10.110767441336959+0.001605750471579036i
-5.625965798805144        -0.5882363295899434      9.745529586087429+0.0016110720577213195i
-0.5926385777827188       -0.13067232746966453     9.686309884776932+0.0031917312275948693i
-0.505809028226765        0.14822989545706142      10.347247307980785+0.0033698550315534293i
-0.5642740909745381       0.11110433551338908      10.263269532059923+0.00326119042899298i
-0.6104234363472703       -0.02958270625894742     9.928663325724097+0.003187637289017678i
-0.6294837148329602       0.07591236714249422      10.180921800027436+0.0031400604732824034i
-3.8254903007813374       -2.1584096538132305      8.628446961095733+0.0015918633717536613i
-3.252273981923325        -2.14400124870147        8.353305525297335+0.0015904546248593874i
-0.4680311107406585       0.18537339521377183      10.431487709683205+0.003425332220485644i
-0.4071418107425135       0.19382742779994216      10.435730711250278+0.0035676581806743557i
-0.33844948597278673      0.19369207173799827      10.404265351156765+0.0037592622618561173i
-0.2714416500625885       0.18759421956675407      10.339284148048863+0.003983087329502662i
-0.21393927776092908      0.17782443449616306      10.247130795809076+0.004214522122088949i
-0.37397060617265493      -0.2569109461606984      9.413185911597425+0.0035505258206405686i
-0.46546495092932355      -0.2547392764888822      9.391778657979843+0.003347963554419263i
-0.5688720928506897       -0.24376012272387715     9.407240226226376+0.0031544967790372402i
-0.4538485062365476       -1.886548141389919       3.791864352754274+9.67087821674392E-4i
-0.5718223299787489       -1.8333377955725372      4.518416171851289+0.0011497968630285215i
-0.7283164159703516       -1.7752665018565428      5.243024747307454+0.0013211674062598546i
-0.17801987317434245      -0.2740160352617207      9.49860203986801+0.003984187475208545i
-0.2409369989087777       -0.30136265681587304     9.359555052097813+0.0037563377971712784i
-0.3181396406998027       -0.3257921442015166      9.24395101820159+0.0035326281970370385i
-0.3593795167353781       -1.9472215747982105      2.9939732694699965+7.581133434100413E-4i
-0.25677708292032203      -1.9981466627385043      1.870228786282795+4.6824936541330406E-4i
-0.358659780601799        -1.8493822554540735      3.3190513380149356+8.67764334153851E-4i
-0.07613010141030675      -0.2665115866146771      9.622285668250205+0.0042093586320840265i
-0.12162760208841505      -0.3019875337563985      9.445567345780779+0.0039842210080301465i
-0.15                     -2.05                    0
-3.561428712421532        -3.5725198876352504      8.037230103007348+0.0015175545780077178i
-0.8438439626322175       -1.9401514532709587      5.360932705132569+0.0012913194315038682i
-1.0001221383120535       -1.7116652128017513      6.117547800568068+0.0014958308745453943i
-2.9566449305232547       -2.62355648444363        7.944462015077833+0.0015424576212857484i
-2.67275911313355         -2.1564219219048746      7.965430258949859+0.0015784509877101005i
-3.2648018345046834       -3.0976910950731784      7.981861223447802+0.0015248597240715733i
-0.7210930348782474       -2.074967337087204       4.8271094227195865+0.0011484915563252606i
-0.47741303346430936      -2.2176780488677337      3.836161483648134+8.969860168107367E-4i
-0.6033950763337261       -2.1621901369545564      4.35142463361074+0.0010255633707143318i
-3.2591733429370264       -4.049571619358493       7.8018499904997105+0.0014897723373935232i
-2.961314059109044        -4.5252108218856         7.599088926622696+0.0014650684314116518i
-2.6666666666666696       -5                       7.420861400858769+0.0014440967955231055i
-0.3544542450706738       -2.250801115144501       3.314468014500822+7.683901055863571E-4i
-0.2512729551451109       -2.2575715838835175      2.8431687706901134+6.546473068017442E-4i
-0.09190449680466148      -2.152807384969269       1.343399031239822+3.09126661250133E-4i
-0.1472023788797805       -2.2543578260683454      2.399580019823524+5.483874871005002E-4i
-0.05078330470032263      -2.05                    0
0.0017149120576101602     -2.138333513862574       1.053877131340845+2.4122826087497336E-4i
-7.5207979573527854       2.922199849749422        10.829262853386647+0.0015796960666422742i
-8                        3.235294117647051        10.876336535999634+0.0015776082957342423i
-7.5191293924151426       3.4903353931285346       10.926540784102393+0.0015755944135140353i
-8                        3.8235294117646963       10.959219500485355+0.0015740363108884246i
-7.0556829783235635       2.0426303006693414       10.648677330100297+0.0015872139386860558i
-7.056665404166573        2.6233646882366477       10.79280122123518+0.001581887709851872i
-6.5858891314849055       1.7424748000873875       10.597117131347035+0.0015911189646800785i
-6.1169872720817855       0.8613100558474368       10.3324719493172+0.0016025124989687584i
-6.125903559890085        1.4401999567086061       10.541102647764532+0.0015967235899016386i
-4.0812810362526895       -1.6927774692984718      8.954683180019666+0.0016145800042540813i
-5.1578809471126315       -0.8737979537061789      9.581269525263421+0.0016165910447464842i
-4.708350108884114        -1.132991699933992       9.39473898637924+0.0016214608093741078i
-4.302733969320604        -1.2965366554813884      9.227336906245355+0.0016266281829053837i
-5.629017462490609        -0.006558853778940272    9.996371239366182+0.0016132729532444725i
-5.643418240377117        0.5653709164572015       10.242225008506479+0.0016109640292927385i
-5.1532845754776595       -0.2902824190861994      9.8580180970021+0.0016226475176652794i
-0.6855847816820532       -0.21006582634281562     9.49072898514376+0.002977347679940742i
-0.7047540939275164       -0.08733839100671792     9.789796850252317+0.002999313203651781i
-0.5159748260994765       0.2027845405737585       10.482851635156244+0.0032993022180244753i
-0.5594481014151214       0.17328519424262487      10.414228484934569+0.003232858923574921i
-0.6246854516083253       0.1717513500884555       10.413546116329+0.0031063575344127815i
-0.7163557743402547       0.03378005864287766      10.080019795660016+0.002989100360729267i
-0.7199502390321925       0.1517046114196564       10.363822334659687+0.002952014160686406i
-3.5208668851404537       -1.6782882980613454      8.75260387634801+0.0016257808471878607i
-2.9533303943798055       -1.6866071128730584      8.462283940845353+0.0016365635112631507i
-2.4013634648722113       -1.6954238386633642      8.075652479741722+0.0016429431782998439i
-0.46964290996828073      0.2587921012609324       10.617984697812416+0.003333832274299502i
-0.1732578089694142       0.21673487952775314      10.302295810077368+0.004214128085631778i
-0.37811523925808554      0.26297586436280973      10.603067157753067+0.0035299420459654605i
-0.295256763698527        0.2532131108444558       10.533552098407041+0.003754251183493523i
-0.22787968916426668      0.23629859793679828      10.429214521061155+0.003983817740113437i
-0.05236751906104268      0.24026167094853834      10.239243723302339+0.004377491761692143i