% Model:              VLR_3_01V03.mph
% Version:            COMSOL 5.5.0.292
% Date:               Jun 30 2020, 18:45
% Dimension:          2
% Nodes:              1512
% Expressions:        1
% Description:        Electric potential
% Length unit:        cm
% x                       y                        V2 (V)
-0.2                      0                        9.999183380766157
-0.24031265690869333      -0.014262896256485007    9.974111202371732
-0.19480050445325514      -0.045307432776061314    9.941649768770574
-0.1799784452820661       -0.08722246977614395     9.888294066531733
-0.222939853387187        -0.08951535597541033     9.841795872469644
-0.19480055158252196      0.04530723014205566      10.056729251824146
-0.23628653473404057      0.036822147405189576     10.063411831777527
-0.15626273723914907      -0.12482770906545015     9.840189861385266
-0.19694837301350052      -0.13059099058534115     9.773577471726979
-0.1799795388163249       0.0872202132963627       10.11008523119935
-0.2213545016748707       0.08500231821613298      10.146142246383805
-0.1654037520831123       -0.1682210614051599      9.707948413280265
-0.1248260106301913       -0.15626409398883467     9.799731031314648
-0.1266660894306307       -0.19776043254542663     9.657435469957626
-0.08722051950937931      -0.1799793904215535      9.769022308681961
-0.15626441318037387      0.12482561104754661      10.158190450205042
-0.1975700918224529       0.12858895564630923      10.22057838454578
-0.08275128358056867      -0.22052655458262596     9.615155087931527
-0.04530739583334546      -0.194800513045527       9.749737556959438
-0.16643177159415118      0.16621014293660008      10.285736298167082
-0.12482824553099213      0.15626230869168145      10.19864838766777
-0.034168343078647634     -0.23336120473486988     9.591165882841066
0                         -0.2                     9.742940710028893
-0.08722323530655218      0.17997807428311324      10.22935207054266
-0.1288852438857933       0.19757184426206498      10.342641696120566
-0.04530842701600124      0.19480027320652224      10.24863558669935
-0.08701964678403902      0.22124688046512922      10.389287041948009
0                         0.2                      10.2554297162406
-0.014300668795287947     0.23507938947288748      10.40959495096493
0.0231008581594535        -0.24462026129132308     9.548253889107448
0.045307432776061314      -0.19480050445325514     9.749729067386255
0.08722246977614395       -0.1799784452820661      9.769021625440041
0.07972260791175484       -0.22450651711745928     9.602065641386739
0.12603242591321814       -0.19902433403732114     9.653756840812788
0.12482770906545015       -0.15626273723914907     9.799729919024356
0.16564930036173228       -0.16707533355789073     9.711016108608176
0.15626409398883467       -0.1248260106301913      9.840187217910543
0.19865160157563805       -0.1278701060103224      9.778414191111834
0.1799793904215535        -0.08722051950937931     9.888292577183766
0.2215070660192242        -0.08264679655543176     9.856869379483195
0.194800513045527         -0.04530739583334546     9.941650016305232
0.04530839156627776       0.1948002814517393       10.248644471058796
0.03370322221214782       0.23297154036555806      10.40546055331548
0.08164661403477322       0.2201310913495266       10.380860821805157
0.08722128626596289       0.17997901883861617      10.229357239223354
0.12605682309157365       0.19775025129283286      10.340259253712519
0.12482654379450844       0.1562636680880034       10.198647316469135
0.16386255916855003       0.16613295436659         10.282530583706764
0.1562630560905248        0.1248273099175397       10.158188365304998
0.17997859391757526       0.08722216307483177      10.110082299202608
0.19682415355768237       0.13007943455284018      10.223424262201275
0.19480054305546163       0.04530726680453399      10.056727755668385
0.22144292160950022       0.08763593685253641      10.15158192601683
0.2                       0                        9.999192639160233
0.2385751434057074        0.013490428009715403     10.02268843104102
0.23521310790768296       -0.03465576469951209     9.939187335856076
-0.09731391780489294      -0.023021759304243883    9.957232477355793
-0.0898901412414413       -0.0438150945176857      9.919305357217084
-0.07576082964451092      -0.02684888440678808     9.950218751526409
-0.08316727109084406      -0.008928170447272305    9.982908877028862
-0.1                      0                        9.99919458228228
-0.07158468585671059      -0.04577767313619206     9.915676139636394
-0.0780843674158894       -0.062472646536387344    9.885222611684096
-0.08001090557392289      0.009415227304587178     10.016361411069797
-0.09731373577189135      0.023022528751605736     10.041141889268188
-0.0572098444221828       -0.05779125887453538     9.893710139123762
-0.06247245590538912      -0.07808451993288563     9.856653528455688
-0.07903775538947982      0.027727529513241107     10.049758958818646
-0.08989024584483046      0.043814879914886674     10.07907067862707
-0.06856867190241586      0.04174005024989451      10.075342477005224
-0.07808451993288563      0.06247245590538912      10.113155224737962
-0.059356846068558955     0.05832608887459728      10.105640348289256
-0.062472646536387344     0.0780843674158894       10.141725720099503
-0.04556059457081376      -0.07099212839442245     9.869568990046973
-0.043814879914886674     -0.08989024584483046     9.835012030860605
-0.023022528751605736     -0.09731373577189135     9.821383810468747
-0.028807793426275655     -0.07476133279750481     9.862646512264412
-0.011041741974707857     -0.08255348451224674     9.848380906989197
0                         -0.1                     9.816457159812147
0.008955078750616078      -0.07969284863388615     9.853609874507553
0.023021759304243883      -0.09731391780489294     9.821382758239858
0.02689085047535659       -0.07912932225465784     9.854658464098677
0.0438150945176857        -0.0898901412414413      9.835011162487177
0.062472646536387344      -0.0780843674158894      9.85665275390822
0.03974935762122233       -0.0687798882978241      9.873597008773906
-0.043833355584700855     0.06620296863974261      10.12006448088495
-0.0438150945176857       0.0898901412414413       10.163365894116609
-0.02781013063358238      0.0774042255064618       10.140564720392256
-0.023021759304243883     0.09731391780489294      10.176999686199563
0                         0.1                      10.181928297099958
-0.008771284023117597     0.07856526860569406      10.142708228725603
0.010058257003587444      0.08342293264067518      10.15158795936875
0.023022528751605736      0.09731373577189135      10.176989367739834
0.043814879914886674      0.08989024584483046      10.163363699640808
0.02718407321736742       0.07497207255902334      10.136118735531523
0.04526737166538476       0.07101410618995349      10.128849515433085
0.06247245590538912       0.07808451993288563      10.141723662683054
0.05604370651782325       0.056098343199111805     10.101579407382024
0.0780843674158894        0.062472646536387344     10.113154591988105
0.07034806760624257       0.043578658849091276     10.07869220278617
0.0898901412414413        0.0438150945176857       10.07907205135665
0.07808451993288563       -0.06247245590538912     9.885222452991398
0.05586676763140358       -0.05722451761589651     9.894740618981842
0.09731391780489294       0.023021759304243883     10.041144934657204
0.07444297045927654       0.026340026039710904     10.047233383153724
0.08222481734558168       0.006713862554193483     10.011431603770404
0.1                       0                        9.999183463488208
0.09731373577189135       -0.023022528751605736    9.957236805135643
0.0802405789013957        -0.0123035544999216      9.976749782395776
0.06842195598000522       -0.04282355218557024     9.921058275082581
0.08989024584483046       -0.043814879914886674    9.919307079611448
0.07945828958884983       -0.029014241803555187    9.94627341782908
-7.615954507085908        -4.601943745725873       8.969761161374771
-8                        -4.411764705882353       8.986247740771308
-8                        -5                       8.96919180386386
-7.407407407407416        -5                       8.951811908986958
-7.5613519429613305       -4.114743867074957       8.998471664738368
-8                        -3.823529411764707       9.036975431748065
-7.1110131850607825       -4.483210155672055       8.943514670754219
-6.814814814814824        -5                       8.899223038924397
-7.538357510956277        -3.5332976867899877      9.064349840852627
-8                        -3.2352941176470598      9.12004170030364
-7.10125726582732         -3.836860972972144       8.997359743317014
-6.679641224056662        -4.093254424058561       8.925123923329162
-6.50392431983682         -4.527843789527788       8.869019569533693
-6.22222222222223         -5                       8.81016109083805
-7.518496118723587        -2.9515122004541974      9.161421993756987
-8                        -2.647058823529412       9.233135768667804
-7.041393794036926        -3.2485629326137384      9.077442221463842
-6.535376210249234        -3.5527076022753312      8.972097074900672
-6.190689275127745        -4.060855353852341       8.852644709984114
-5.921959967161484        -4.526732096148679       8.763133810440921
-5.629629629629637        -5                       8.682636279412488
-7.518356345028603        -2.3588539004933224      9.29022568353862
-8                        -2.0588235294117663      9.372901223358582
-7.032279713003348        -2.654214275677598       9.194978504593271
-6.539765029639394        -2.9299465359668613      9.085604813727024
-6.120364798293256        -3.176021801533737       8.973152774310934
-7.520642732162843        -1.768291168490324       9.443881824357506
-8                        -1.4705882352941193      9.53489623532619
-0.24482755674263532      -0.05503617403239949     9.897637577399875
-0.2902859444984637       -0.0346752260674946      9.92632490648851
-5.929598055040769        -3.610039818846264       8.86069637038901
-5.625082846086421        -4.059206433873252       8.733042778018763
-5.334866422428841        -4.524610726034406       8.617694918178278
-5.037037037037043        -5                       8.514244421299791
-7.037813392615945        -2.067302648975994       9.340449694346077
-6.537853597975636        -2.369107435561473       9.217727980341637
-5.613526748735444        -3.133214979963935       8.881484451707239
-5.987090896799467        -2.6556787932176293      9.067760888776364
-7.522874947768559        -1.178685273108457       9.617338325325383
-8                        -0.8823529411764723      9.713652890158448
-7.5234951345034204       -0.5895293325887531      9.804616842109402
-8                        -0.29411764705882604     9.902847782940261
-7.043994596698077        -1.4754846157141415      9.51091520386
-0.2885643161636315       0.024737702136644328     10.050842972385356
-0.35945306358525475      -0.0015045697053784376   9.995688754776724
-0.2738226094352419       -0.08624641334664457     9.819839859824057
-0.33473546415532524      -0.07573900520070441     9.825536844797782
-0.24775536750690588      -0.13368679408177905     9.724030363832213
-5.333593319419933        -3.584270219043363       8.72444351958522
-5.039788696650177        -4.048731641056767       8.571077141219183
-4.742106250919545        -4.523628254384542       8.42874595979159
-4.44444444444445         -5                       8.30271015795217
-7.524061859831408        -9.506260646167386E-4    9.998902561439692
-8                        0.2941176470588207       10.09558857776744
-7.525076714226414        0.5872508682247994       10.193061414481095
-8                        0.8823529411764666       10.28478329152552
-5.044145391472228        -3.09105073169472        8.744118766086707
-6.566787942312745        -1.773636243548667       9.388792233693229
-6.084035448682757        -2.0518878192884693      9.251513236060903
-5.353209999417251        -2.6390875498313067      8.944552623598696
-5.630412531389698        -2.218336228777168       9.128364604256028
-7.04669996069329         -0.8853436342327976      9.698726195828057
-7.0484801998600615       -0.2968202211519687      9.89720131279553
-6.569148604635087        -1.1796487259286101      9.579684657283357
-0.40508188350002283      -0.058060823136158304    9.858444466001314
-0.4504564006521756       0.010282615803571796     10.024575352338223
-0.4073562333422682       0.07175677474479884      10.1736937095542
-0.3344126865444396       0.0732936727691376       10.16706394761209
-0.2723065851177734       0.08069042984437158      10.165645341591926
-0.3067468944482761       -0.13279978411776652     9.696877995891994
-0.3729328194816328       -0.12644021409081688     9.69436356149244
-0.4375616668157002       -0.1182595034660168      9.705764621745947
-0.21407714082178683      -0.1778968824606613      9.634251113835562
-0.2720426986609584       -0.18589034263538448     9.576205608467731
-4.749418178534554        -3.5633777088252447      8.548828188588635
-4.457678718942812        -3.08138393950536        8.55165121468801
-4.448024696168004        -4.045284346616853       8.36261126470187
-4.148476208788758        -4.523142812599228       8.194854178718446
-3.8518518518518565       -5                       8.046908621006084
-7.525434843109821        1.174477871979408        10.379753937984782
-8                        1.4705882352941124       10.463539478714617
-7.049941620398979        0.291250483532136        10.099312664771626
-7.052758162443923        0.876675819610382        10.296674051497126
-4.760211600420913        -2.550727980234716       8.811792031268697
-6.09068240349043         -1.4668249300958645      9.44326796018194
-5.611472371188689        -1.7360195436502694      9.287378003230122
-5.131572410915187        -2.074971743630432       9.074506055322518
-4.723518155371189        -2.1148163956973187      8.956840157009774
-6.57250442480762         -0.5920817115506403      9.784559512245545
-6.5751432487009165       -0.005022296197676529    9.99738629837754
-6.096695784349031        -0.8825097728876092      9.655886657031461
-0.48587661029844426      0.08243914221403019      10.205457804228901
-0.49987853322602         -0.06229180563034596     9.843176587934012
-0.5450762502772805       0.029540849962517917     10.073483994699762
-4.169279599486121        -2.620403905555908       8.58070988852572
-0.4412494298323515       0.1343927649847939       10.33396006827718
-0.37268920914094383      0.13163702240263814      10.317021560005172
-0.30606673453073546      0.1330318048213739       10.301829126075832
-0.24710699153740298      0.13198040579049508      10.269788717219674
-0.33923812799345576      -0.18916718797021317     9.541774163808357
-0.414240500067661        -0.18467685609053267     9.537971104841795
-0.4962748290131984       -0.16254400836656863     9.588241821382548
-0.17332100006628814      -0.21618489078939468     9.554645623478947
-0.22898439677039545      -0.23388526692995937     9.464672346412554
-0.2955204061154839       -0.2484777361189621      9.393935086774107
-0.1264080846351218       -0.2460699536193298      9.491044456506147
-4.156191796408954        -3.5673618182360105      8.318354309839725
-3.8667435458763477       -3.0951272052286596      8.298323020728988
-3.573700138803041        -2.6190396484235974      8.309041237756901
-0.4576508824523324       -2.0023767041059797      3.6043687281236942
-0.47128688301728133      -2.1017958557924312      3.6733466275297917
-0.36259012521661504      -2.0476963661195096      2.9182764426256402
-0.5760229911047343       -2.036864974411963       4.226574231355514
-0.5422034885578865       -1.9408045805778287      4.15585034537812
-0.6612243442384559       -1.9383791318049817      4.7002833432733695
-3.854793269432092        -4.0469371262065135      8.105353426339436
-3.5554484510484152       -4.52391634121537        7.915846151356988
-3.259259259259263        -5                       7.748656368728768
-0.3639558033588264       -2.1435593753967046      3.064737119204844
-0.26896054470680764      -2.096811308239134       2.1836658567181932
-0.28744253027958244      -2.183682152761411       2.6878603525022884
-0.1985691031164934       -2.169667381143199       2.0312215207056785
-7.526386518122938        1.7594129013617894       10.551921831080259
-8                        2.0588235294117583       10.625534153633627
-7.5260360532035735       2.343066846439074        10.704150819220514
-8                        2.647058823529404        10.765299062791577
-7.0544810519162215       1.4606717709833195       10.482510592208937
-6.579291949282602        0.5803498282098052       10.209472191441263
-6.5833875191965046       1.1646828104934963       10.412862113336606
-4.365676077788989        -2.15308034259902        8.832190129753156
-5.622182660221671        -1.167411938370004       9.504826576664938
-5.150398656384098        -1.4570831002901585      9.32051259883505
-4.6782423901660675       -1.708282629297274       9.114145587722858
-6.099857226839624        -0.300396878367676       9.880808798051833
-6.105224050388962        0.28392367157919124      10.111045194519809
-5.625965798805144        -0.5882363295899434      9.744895967865917
-0.5926385777827188       -0.13067232746966453     9.668940011931367
-0.505809028226765        0.14822989545706142      10.373672112444575
-0.5642740909745381       0.11110433551338908      10.279801684133206
-0.6104234363472703       -0.02958270625894742     9.92478847041565
-0.6294837148329602       0.07591236714249422      10.190139892561447
-3.8254903007813374       -2.1584096538132305      8.624912180137846
-3.252273981923325        -2.14400124870147        8.348912875042862
-0.4680311107406585       0.18537339521377183      10.467816302439239
-0.4071418107425135       0.19382742779994216      10.4833788506482
-0.33844948597278673      0.19369207173799827      10.468344824957434
-0.2714416500625885       0.18759421956675407      10.426441449776563
-0.21393927776092908      0.17782443449616306      10.36382700811828
-0.37397060617265493      -0.2569109461606984      9.350847147518515
-0.46546495092932355      -0.2547392764888822      9.34701498140177
-0.5688720928506897       -0.24376012272387715     9.376146478154356
-0.4538485062365476       -1.886548141389919       3.7814751783851714
-0.5718223299787489       -1.8333377955725372      4.506288345078392
-0.7283164159703516       -1.7752665018565428      5.2297302252885745
-0.17801987317434245      -0.2740160352617207      9.368625986381138
-0.2409369989087777       -0.30136265681587304     9.257640565858361
-0.3181396406998027       -0.3257921442015166      9.165485736697848
-0.3593795167353781       -1.9472215747982105      2.985926247158936
-0.25677708292032203      -1.9981466627385043      1.8653841232652388
-0.358659780601799        -1.8493822554540735      3.309021646561512
-0.07613010141030675      -0.2665115866146771      9.445670834970839
-0.12162760208841505      -0.3019875337563985      9.3011740326059
-0.15                     -2.05                    0
-3.561428712421532        -3.5725198876352504      8.032817231345952
-0.8438439626322175       -1.9401514532709587      5.349613595975346
-1.0001221383120535       -1.7116652128017513      6.104305700774544
-2.9566449305232547       -2.62355648444363        7.9393727594385135
-2.67275911313355         -2.1564219219048746      7.959841082608527
-3.2648018345046834       -3.0976910950731784      7.977166092862661
-0.7210930348782474       -2.074967337087204       4.8172618088051555
-0.47741303346430936      -2.2176780488677337      3.8287593105552875
-0.6033950763337261       -2.1621901369545564      4.342804766022412
-3.2591733429370264       -4.049571619358493       7.797111531142924
-2.961314059109044        -4.5252108218856         7.594093984774717
-2.6666666666666696       -5                       7.415634113350985
-0.3544542450706738       -2.250801115144501       3.3082768304389742
-0.2512729551451109       -2.2575715838835175      2.838003816856764
-0.09190449680466148      -2.152807384969269       1.340958597005539
-0.1472023788797805       -2.2543578260683454      2.3953623447288472
-0.05078330470032263      -2.05                    0
0.0017149120576101602     -2.138333513862574       1.0520092495730327
-7.5207979573527854       2.922199849749422        10.8312143127278
-8                        3.235294117647051        10.878393125651577
-7.5191293924151426       3.4903353931285346       10.928710842628588
-8                        3.8235294117646963       10.961461727481554
-7.0556829783235635       2.0426303006693414       10.650220893056185
-7.056665404166573        2.6233646882366477       10.794674516941113
-6.5858891314849055       1.7424748000873875       10.598551288397317
-6.1169872720817855       0.8613100558474368       10.33329146224675
-6.125903559890085        1.4401999567086061       10.54242141806685
-4.0812810362526895       -1.6927774692984718      8.951905468518744
-5.1578809471126315       -0.8737979537061789      9.580200349580004
-4.708350108884114        -1.132991699933992       9.393154271920531
-4.302733969320604        -1.2965366554813884      9.2252589361763
-5.629017462490609        -0.006558853778940272    9.996367105445175
-5.643418240377117        0.5653709164572015       10.242837507233057
-5.1532845754776595       -0.2902824190861994      9.857654941162226
-0.6855847816820532       -0.21006582634281562     9.471071254457025
-0.7047540939275164       -0.08733839100671792     9.78144880223529
-0.5159748260994765       0.2027845405737585       10.515405842760568
-0.5594481014151214       0.17328519424262487      10.439047297361695
-0.6246854516083253       0.1717513500884555       10.43346668471036
-0.7163557743402547       0.03378005864287766      10.083188847118082
-0.7199502390321925       0.1517046114196564       10.37727274837046
-3.5208668851404537       -1.6782882980613454      8.749104193787945
-2.9533303943798055       -1.6866071128730584      8.457672064052462
-2.4013634648722113       -1.6954238386633642      8.069433371697665
-0.46964290996828073      0.2587921012609324       10.662482467359323
-0.1732578089694142       0.21673487952775314      10.445403391518598
-0.37811523925808554      0.26297586436280973      10.664951547404028
-0.295256763698527        0.2532131108444558       10.617768917418658
-0.22787968916426668      0.23629859793679828      10.54020395987723
-0.05236751906104268      0.24026167094853834      10.44210576334333
-0.4116901844850922       -0.3432949297566378      9.105232986133396
-0.6525497683876649       -0.3507965623534536      9.102595150580328
-0.7758404594856952       -0.2917311830228127      9.276029970816431
-0.5256963731233456       -0.3542698752084283      9.077307565708638
-0.45881763230528466      -1.7740045517071357      4.157797659954359
-0.5869985657867445       -1.6844468640335488      4.969416285724396
-0.7553124991390016       -1.5666590974477934      5.797026102377671
-0.9500681414914327       -1.3851284811500717      6.654546404198292
-1.2526205437460383       -1.4437239928742964      7.049727198263647
-0.17684496002442573      -0.3450077623995926      9.140385259458741
-0.24891817882951345      -0.38642021215466493     8.994262155710253
-0.3378520478064621       -0.4213910189715538      8.88003577742741
-0.26675072298465263      -1.8991793189812756      2.3434200720894265
-0.15                     -1.95                    0
-0.28178285149988874      -1.8115036548418295      2.9970588749580918
-0.34713022751764666      -1.7432655270124788      3.747025613059566
-0.026067809493323393     -0.2811878078107287      9.404950284044842
-0.06540844387178488      -0.3164183008989433      9.267943512635886
-0.02226062400946343      -0.32381456485077076     9.247820647960966
-0.10707874048802764      -0.3651656807888834      9.090041650318591
-2.9609125947592045       -3.5755269231085527      7.6840153362453885
-0.8756676203093992       -2.1151240927259023      5.31168379378228
-1.4283531172243447       -1.7988757848967258      6.835526352658404
-1.0775226656137402       -2.0237238793045487      5.909983211564541
-2.127277806415136        -2.166570188926277       7.463470981163298
-1.908980346153966        -1.7197221717907871      7.575774387689187
-1.7158274743029653       -2.09105510583693        7.016686717791854
-2.3459934663414863       -2.623642143393534       7.457008026056312
-2.65833980185829         -3.100111241991844       7.571215306855859
-0.45261389903559895      -2.3400527305688077      3.9567431160090227
-0.764585626016433        -2.245313334523189       4.95304526191051
-0.618865958247567        -2.3077991093985326      4.506052552078906
-2.6611169920514217       -4.052738856768004       7.4395956756304455
-2.3632248700633545       -4.529844928515897       7.23838532627498
-2.074074074074076        -5                       7.065565888353379
-0.3291113451141393       -2.355864305804255       3.551782160318457
-0.21883050975817125      -2.3547562398232076      3.1890746757896866
-0.039852379302618625     -2.2397019650216907      2.049163186554121
0.04880285245410847       -2.2089605711735603      1.7952012293883883
-0.09535855726561093      -2.3490586067763397      2.8798398616378456
0.05078330470032379       -2.05                    0
0.09726544532853475       -2.145997161332906       1.2843069127169715
-7.463161174804897        4.113793152045382        11.004489344123458
-8                        4.411764705882343        11.012185831868914
-7.592783451076543        4.6193836201421075       11.030250475260788
-8                        5                        11.029243836952448
-7.0533362605224585       3.187530969062907        10.909293327502432
-7.0774809618107195       3.6596648585017535       10.980944589820265
-6.584763121928618        2.3265855070163135       10.764582245064554
-6.599549277144239        2.918070037466533        10.903022023564771
-6.111116557654433        2.0200784546532473       10.733648415076742
-5.665506174162114        1.1325605564480992       10.475098333198753
-5.682352020652732        1.7026006160168885       10.68842816465603
-3.797382203547977        -1.1649974509508574      9.172407235738019
-4.693366149083615        -0.5753786955810419      9.68260522974292
-4.260616784214531        -0.8475776861773676      9.472815460731924
-5.146551731572543        0.2906265618361319       10.141213416728606
-5.198403842671093        0.8325153798253745       10.39495272163827
-4.666925363801414        0.011650756302775855     10.005724668043547
-1.6920068024702786       -1.3608205797208048      7.75423443707025
-1.4081366074416861       -1.1403395617452863      7.790335961309891
-0.8188536976580331       -0.15609637148036773     9.618335474647877
-0.8125070031368695       -0.032822025558851164    9.919167430928558
-0.9695464094366373       -0.2822408753322463      9.337633410851533
-0.5767002972854294       0.2549365571436507       10.65126138336253
-0.7004919960416953       0.2687445707576689       10.675549457253767
-0.8615214436925573       0.10472162306870735      10.251685219393172
-0.8044803807893467       0.23873226729129063      10.585412437232844
-3.216253694672058        -1.2259814177933805      8.932912892651858
-2.0927062370204306       -1.2315958392833353      8.291854637600382
-2.659116003761117        -1.2289102140535462      8.667241550023364
-0.5269168131293644       0.36358375257508835      10.946571018035064
-0.4146338176171776       0.34812455687998856      10.906963338556936
-0.12720707283997748      0.2478610406314357       10.514032693428168
-0.08073665546472344      0.2683074894055755       10.561304553554093
-0.17531483183730615      0.275733042469647        10.633923270228648
-0.3175722234799264       0.3318989913763741       10.850697280179686
-0.23808852971166028      0.3068691039472232       10.756575556208553
-0.03197740043646423      0.28148673056495704      10.595506659087581
0.017069309386575176      0.28435057279588316      10.604358017050101
-0.44810704770497023      -0.45505678577946385     8.785789456833585
-0.8064885851888179       -0.4772287487503826      8.813253542776764
-0.5944024229077918       -0.4879938618900488      8.719468659692998
-1.095988121084615        -1.1190000197985304      7.472220541761714
-1.3180621918347755       -0.924449453511183       8.109600591315871
-1.0854605270704676       -0.8193060522276641      8.138135700556065
-0.4451683814446753       -1.6406782783762859      4.620264319171413
-0.5688496861684946       -1.5102456433868463      5.4807992680874635
-0.7097517553044046       -1.3494448032362503      6.3004459502238115
-0.8335786315697145       -1.1876437786621024      6.957467144867195
-0.16068504517152266      -0.43660570312481684     8.845293497767274
-0.25118931588780163      -0.48636034210021145     8.68101908521426
-0.3491332040133435       -0.5316045818426814      8.545774266482988
-0.19564549127154143      -1.8296613757079718      2.2935721067034236
-0.05078330470032379      -1.9499999999999997      0
-0.0969274387359871       -1.8548462151023797      1.4832544711739375
-0.24078300416160917      -1.7359297402113056      3.2850482703330504
-0.3119636656246705       -1.6255289738083039      4.232490673660816
-2.7020872949280186E-4    -1.855035941382032       1.327717661347753
0.019528419756745012      -0.3038660945940418      9.320872715673884
-0.0447014079238043       -0.36556985936584324     9.097813975928647
0.00623932494255766       -0.3530137057646716      9.14413494087352
-0.07293509977467205      -0.42604456788660655     8.88828278012563
0.05078330470032263       -1.95                    0
0.07133587763929015       -0.27791986380014994     9.405536002944016