% Model:              VLR_3_01V03.mph
% Version:            COMSOL 5.5.0.292
% Date:               Jun 30 2020, 18:45
% Dimension:          2
% Nodes:              1230
% Expressions:        1
% Description:        Electric potential
% Length unit:        cm
% x                       y                        V2 (V)
-0.7796584323248269       -0.6262050214624546      9.209172375945927
-0.8991207243305398       -0.437700723188031       9.467002729146497
-0.9973802803225136       -0.6433745673233668      9.057340524366227
-0.9738021402429143       -0.22739699131325278     9.729459713540878
-1.1153826415373314       -0.44109088546929454     9.384049209641802
-0.8475081686380049       -0.8256094634697637      8.696012404116969
-0.6237791782731196       -0.7816006248416845      8.965842297465393
-1                        0                        10.000506878711251
-1.191631854940011        -0.07561732325341956     9.899108997438832
-0.6597037322144141       -0.9851573976498216      8.270346860574408
-0.4376898420782          -0.8991260212793092      8.748020264879953
-0.9738007317554538       0.22740302291865597      10.271585336071153
-1.1821647510407076       0.15559788549239026      10.209828107675243
-1.1176625225641867       0.3935954806143807       10.54301980091863
-0.8991198055327082       0.4377026105688942       10.534055615688043
-0.4389838601788732       -1.1029207191168091      7.816753373070816
-0.22739672515945517      -0.9738022023936664      8.583424089015367
-0.7796530336597403       0.6262117430272          10.791904592451752
-1.0125957330913946       0.6122860523605507       10.88810759639834
-0.1890465665677828       -1.1986116922041672      7.27448938889284
0                         -1                       8.517975410391898
-0.6237818533660353       0.7815984898982559       11.03519409012434
-0.8767993923110549       0.8055361844888264       11.263297988614339
0.12253536731820604       -1.2199723200143224      7.132045532335395
0.2274041180318779        -0.9738004760227548      8.58334543353612
-0.43771641767720687      0.8991130839309552       11.25296640388819
-0.5863119807177679       1.0282702258986656       11.876255404199432
0.3823654202545466        -1.1320972576079538      7.671867294189219
0.4377125957988251        -0.8991149445310395      8.748067007028942
-0.2274090882005394       0.9737993153642074       11.417714000808877
-0.38372795329415005      1.1316973094262868       12.327032870270783
0.5844101541346147        -1.0299902011993374      8.11842535128627
0.6237792660306649        -0.7816005548042074      8.965849367793862
0                         1                        11.483063293293533
-0.12248231138430803      1.2204657760056967       12.872171016127522
0.7796514362042091        -0.6262137319036641      9.209137511078213
0.8728386434525084        -0.8122711620118538      8.722240697956904
1.0027606536630493        -0.6211105093301503      9.098963822223867
0.899119060832621         -0.43770414031336896     9.466986089167419
0.22740170280165262       0.9738010400296916       11.417637527375044
0.18351138976302916       1.206367307804459        12.774120269481969
1.1060324895182045        -0.40945625031866273     9.435829148098945
0.9738005383336292        -0.22740385120119241     9.729447497817153
1.1661025919300827        -0.17462797056013218     9.766551778115982
1                         0                        10.000520894463936
0.4376936702608554        0.8991241577299441       11.253020308049281
0.43755910484687977       1.1047446136515204       12.192879917145554
0.6237817702323996        0.7815985562459375       11.035194271108791
0.6580117749377661        0.9848995343878677       11.729456670246526
0.7796600322735768        0.6262030294362725       10.791865431318437
0.8523563811051078        0.8230835063001561       11.300036377192185
0.8991214702162085        0.437699190993362        10.534038039968985
1.0062077320212126        0.6250399678815248       10.910604174928793
1.2254465268890946        0.11464641979471708      10.156276217500244
0.9738023339855035        0.22739616163072368      10.271592706639295
1.1282024253426575        0.39382310488069794      10.545278063957857
-0.36097876329558465      -0.22613436237435341     9.563686098078204
-0.4494507061124643       -0.21907547278280007     9.583525549444472
-0.39042183555636684      -0.31236323458562987     9.39820733183426
-0.48656958901289904      -0.11510879657010833     9.783334735560754
-0.37706840713104045      -0.13426425243931556     9.742284389587736
-0.4201735260211338       -0.044888606967969154    9.914850758786136
-0.5                      0                        10.000541665255827
-0.31236228542449446      -0.3904225949460233      9.236337509212433
-0.2860681397120547       -0.27916548126148544     9.454884261138092
-0.39704723038244266      0.046443010239911625     10.089497741797878
-0.4865686788481499       0.11511264380582166      10.217683765974426
-0.22658379255565483      -0.35462530356847166     9.300686020985918
-0.2190743997688595       -0.4494512291293839      9.108247581145804
-0.3999496723586556       0.14159802793093873      10.27192509376548
-0.4494512291293839       0.2190743997688595       10.417499627016428
-0.11511264380582166      -0.4865686788481499      9.024529012376279
-0.13567531472421782      -0.37295891806508197     9.258516940809601
-0.3387197543746866       0.2093073439167747       10.40597033276559
-0.3904225949460233       0.31236228542449446      10.60282671728284
-0.050654423850324495     -0.4126367876943561      9.174863689133906
0                         -0.5                     8.993592755807478
-0.289999098667745        0.2977345064198793       10.582574238728206
-0.31236323458562987      0.39042183555636684      10.764710141243777
0.04435586120315895       -0.3977273112142072      9.205280029876219
0.11510879657010833       -0.48656958901289904     9.024523147956572
0.1354529768057275        -0.39535681603317097     9.21299317084906
0.21907547278280007       -0.4494507061124643      9.108245586871336
-0.21907547278280007      0.4494507061124643       10.892798103452584
-0.2100665838276573       0.34300522286102625      10.678118727283108
0.31236323458562987       -0.39042183555636684     9.236337007946714
0.19838496270507153       -0.34654786025781825     9.31510610381695
0.3904225949460233        -0.31236228542449446     9.398211058688773
0.2797270408789609        -0.2903000959284411      9.432457226790135
-0.1371983811102289       0.40058646581533597      10.79861582595065
-0.11510879657010833      0.48656958901289904      10.976548587219327
-0.04332627862696256      0.401440017246306        10.803387801821968
0                         0.5                      11.00750061677025
0.050623114512619326      0.4167252902148565       10.834572615411746
0.11511264380582166       0.4865686788481499       10.976493617446161
0.1335452691375571        0.3749655290343442       10.74668872041181
0.2190743997688595        0.4494512291293839       10.89278544958338
0.3436019409642757        -0.22158666252552534     9.571438010285108
0.4494512291293839        -0.2190743997688595      9.583537085416154
0.3944537675017814        -0.15080897161828727     9.711160205225687
0.4865686788481499        -0.11511264380582166     9.783352407384857
0.5                       0                        10.000494623444679
0.40158245080937577       -0.06452969749996143     9.876964984586683
0.4110437767117595        0.02949550221492875      10.056888925797978
0.48656958901289904       0.11510879657010833      10.21770112449821
0.4494507061124643        0.21907547278280007      10.417509244318847
0.373626824184524         0.12205154078574453      10.235348311663246
0.3500744984340781        0.2131225078855333       10.412735095559455
0.39042183555636684       0.31236323458562987      10.602832184108262
0.31236228542449446       0.3904225949460233       10.764698495866105
0.2768673065383102        0.2781670589214044       10.544780301323769
0.2203562420457842        0.3508071650470407       10.693111576856998
-7.615953712338844        -4.601942690675706       9.047828607087382
-8                        -4.411764705882353       9.063143007996706
-8                        -5                       9.047298435539744
-7.407407407407416        -5                       9.031149916433858
-7.561347969226016        -4.114738591824122       9.074504429072503
-8                        -3.823529411764707       9.110250135555201
-7.1110131850607825       -4.483210155672055       9.023450354441708
-6.814814814814824        -5                       8.982266603704424
-7.538334380602256        -3.533268384985803       9.135683612989778
-8                        -3.2352941176470598      9.187333605205302
-7.101256554332198        -3.8368586247248873      9.073518373336432
-6.679613718806478        -4.093258848328584       9.006420553628992
-6.5039258304865175       -4.527845882844359       8.954207081574403
-6.22222222222223         -5                       8.899409578792802
-7.518351213929124        -2.951338687951001       9.225772730433578
-8                        -2.647058823529412       9.292182627211993
-7.041400631016076        -3.248562989806928       9.147934785566084
-6.5353739214392705       -3.5527248344986844      9.050225503421677
-6.19044670800977         -4.060882290637522       8.93907412285843
-5.923633519913393        -4.526638778291708       8.856023069549634
-5.629629629629637        -5                       8.780602639125622
-7.517323792596018        -2.3576505127247356      9.345354227217188
-8                        -2.0588235294117663      9.421619322671248
-7.031613759486986        -2.6538684937130625      9.257030698448874
-6.540168600599629        -2.9335767222537026      9.155119711806812
-6.114745468801729        -3.1744409705443526      9.050980742910461
-5.9295815911882315       -3.6100493988667175      8.946924438517518
-5.62527145139497         -4.059737327027621       8.827918848785314
-5.337007567818663        -4.523471308116751       8.72076925715425
-5.037037037037043        -5                       8.623394224863816
-7.521693935996428        -1.7670321889474576      9.487706031033225
-8                        -1.4705882352941193      9.571484415233787
-7.036778305880927        -2.065797082690372       9.392110668161868
-5.613568045012288        -3.133236332616227       8.966942831197157
-6.5356600129001405       -2.3662849668516373      9.278884773679023
-5.986702464651422        -2.654966692898777       9.139947972769356
-5.332276063443718        -3.586373488278233       8.819905060560686
-5.0424631565910625       -3.0954335659987784      8.838690571018914
-5.038683109377009        -4.051008838551842       8.676559993743169
-4.742586950561312        -4.523483892278065       8.543806226998724
-4.44444444444445         -5                       8.425323851628029
-7.52314283199155         -1.1780058035304526      9.647941966973908
-8                        -0.8823529411764723      9.736708258081332
-7.04505603435458         -1.4747594260128774      9.54976457561027
-6.569063898756392        -1.7740544822554178      9.436923593660973
-5.354033557058689        -2.6432237178868077      9.025654230091549
-4.761795974742748        -2.563301233513555       8.901772268526344
-6.083146585442988        -2.0512048014146336      9.31036829884328
-5.629228421148632        -2.2205295339633224      9.196059801604877
-7.524056777462938        -0.5895633490674755      9.820764199208353
-8                        -0.29411764705882604     9.911475855862035
-4.744089027098744        -3.568775466608212       8.654881128524778
-4.454316392359571        -3.0844689833291326      8.660392594302488
-4.446514954557608        -4.0459633981370215      8.481953486286494
-4.149097837116587        -4.522815027689307       8.324689559152185
-3.8518518518518565       -5                       8.18483844596855
-4.164963630031996        -2.6180695391331654      8.691953880096529
-7.047655669944588        -0.8849198795961071      9.723219442194868
-4.359240843336131        -2.1567892163301865      8.923932289515458
-4.723731650162648        -2.1173306943248416      9.04013638012983
-6.56987453876291         -1.1793419500122364      9.613482742769484
-6.090716624120027        -1.4650741746420346      9.48832982568919
-5.121329924507769        -2.0777690934343407      9.145385834013686
-5.607691828125245        -1.732076472808329       9.34518701286283
-7.524911307841354        -0.0014342953633868043   10.000039068071812
-8                        0.2941176470588207       10.08948159773287
-7.049959434131027        -0.2968337858554448      9.90632475131419
-7.525813756676057        0.5863384808896258       10.179206876209852
-8                        0.8823529411764666       10.264248786715275
-0.3305535502690257       -1.959365589125215       2.962409812273217
-0.4351574547526665       -1.9616143061019133      3.8127746328898797
-0.35285147599668293      -2.0439598220293105      3.0653182009767446
-0.26725456457808844      -2.1000458019271657      2.3404387909565822
-0.2517119105533174       -2.0023010977037607      1.95567718997126
-0.3526342761847593       -1.8782002666029893      3.468219339564014
-0.44541256604560403      -1.8472580501241798      4.220144250266681
-4.1527576429753825       -3.5681421305742007      8.441542855092235
-0.5358913882591481       -1.9026717404688394      4.554775056105694
-3.8598946423891487       -3.093492471568304       8.425251385601443
-0.573240360640053        -2.01733341497386        4.548364262118675
-0.46817867102065824      -2.0933750057707976      3.919875495124987
-3.8531235646179045       -4.045776677640387       8.24103612244569
-3.555807675743093        -4.5232373119181375      8.061926255771658
-3.259259259259263        -5                       7.902968683927703
-3.5643452505686306       -2.6195563839168745      8.439122386875772
-3.834384341310406        -2.1580833967703477      8.743020497013047
-4.095623402409281        -1.6943754153890576      9.045406564933758
-6.574249276645311        -0.5910762078335136      9.802858649632364
-4.6774768615281275       -1.7037926350163763      9.18923495329257
-6.098136862701782        -0.8810238293457876      9.68467598730962
-5.625114803242837        -1.1618675583103615      9.547690308775417
-5.1579233360798          -1.4452067547008547      9.382163182340319
-7.052232299972133        0.2903728731938647       10.092569976963091
-6.578509761651722        -0.00454363150667383     9.998951424106933
-7.526563667313428        1.1737037225638527       10.351731562283364
-8                        1.4705882352941124       10.429471901979722
-7.054510793606602        0.8769952193562891       10.275141428766355
-0.3651096267357184       -2.1474702819124802      3.2964023855690194
-0.28792365244372753      -2.1871173380500677      2.884553561247465
-0.15                     -2.05                    0
-0.19666215675905835      -2.1699266683785154      2.151651845551316
-0.26041263385770247      -1.9107524531881006      2.4459836956746597
-0.15                     -1.95                    0
-0.2822846499013766       -1.8353291389210837      3.171969464054226
-0.5622083561382493       -1.7779940568799397      5.0462448496876595
-0.3493982486664218       -1.78507329543134        3.945368324583345
-0.43323659887328625      -1.7500375635411725      4.574246801020218
-3.558891618862483        -3.571748982762978       8.17528205473449
-0.6954384035507923       -1.902880876361976       5.270518382390118
-1.0392326708324087       -1.509540821253893       7.043754171672804
-1.1660212626819961       -1.712636611092072       6.865940789685317
-0.9321794641646546       -1.6407120903533259      6.542535389684732
-1.264827874388144        -1.4190077965661005      7.543034567537615
-0.9191234688081293       -1.8342318530045556      6.113687263694416
-1.5741330824847208       -1.6541217977755471      7.551536175942197
-3.264093319536834        -3.098968809693469       8.12890626355007
-2.968762756820253        -2.628834506744106       8.109674230670906
-0.6996780141741239       -2.075224580888115       5.061668639930641
-0.6044136172188922       -2.1687162213435545      4.63595899406721
-0.4785157026203608       -2.221434362058373       4.0869180350917995
-3.25967443693939         -4.048705769811942       7.951815762582393
-2.962197709941916        -4.524639856098502       7.757459729644083
-2.6666666666666696       -5                       7.586185707377591
-7.527090072223576        1.7602031573160863       10.511353713887987
-8                        2.0588235294117583       10.579335906857247
-7.526875156912624        2.3462909704534267       10.652770570310482
-8                        2.647058823529404        10.708771319177991
-1.2169583685685215       -1.1207393285418048      8.09525082681584
-1.5860958573891766       -1.2209224859383505      8.184914314526411
-1.1094546499528615       -0.860701425744228       8.601818875926584
-1.4167944926405478       -0.873257838707733       8.663390003834811
-1.2591175847722533       -0.6461798048133401      9.027547544881678
-3.2395457750414787       -2.1403579805988393      8.486127450155317
-2.6999567207527386       -2.1640241744017414      8.15422752055006
-1.8921447177541715       -1.445907776904765       8.124958453269157
-2.0181243035668337       -1.7667452048381245      7.897734790532076
-1.9938598315222595       -1.1450777771954954      8.558566877334087
-3.5110330291677783       -1.6679500084385184      8.864141932668728
-4.336924218879557        -1.3075974218830604      9.294636432926758
-3.8546811202336837       -1.1720398138958568      9.259184174167038
-6.101858553571056        -0.2983170998772643      9.892192696051369
-4.750551812653031        -1.1280784300178488      9.453828758263265
-5.63087881401115         -0.5800951078595223      9.769995428281115
-5.165374786421792        -0.8676563386178708      9.61910547855976
-6.583408768807317        0.5810641717002619       10.194541857513444
-6.110943270293366        0.288232967457335        10.104945405291174
-7.055822605051362        1.4626322651849966       10.447310419389247
-6.587363212452865        1.166585783253571        10.3825594694391
-0.35861565356999914      -2.2560109018461887      3.5533952384115426
-0.2521049378628343       -2.2621436212091504      3.038347103169801
-0.14929629015855825      -2.2553337704976846      2.551263578832421
-0.05078330470032263      -2.05                    0
-0.09277295695513874      -2.153493111855071       1.433619519094343
8.4549342286298E-6        -2.138659321550393       1.1184416152847756
-0.19798606410239344      -1.8403822521003192      2.475664955966718
-0.05078330470032379      -1.9499999999999997      0
-0.09833543414091084      -1.860498022683317       1.5982953378927787
-0.7101515456030574       -1.6678967400848164      5.91601006067984
-0.8263926107095261       -1.4792604225452923      6.755697201410093
-1.006742142217722        -1.2960871857126741      7.514567313511177
-0.9208164011677882       -1.0555439665134532      8.08676051305966
-0.2551379011322423       -1.7638539674888387      3.548551221305702
-0.4840619593437185       -1.6264452391114275      5.363389869504159
-0.34517395664912526      -1.6870558294116347      4.519491105110945
-2.9639227034771576       -3.576317074084635       7.8503685434400206
-0.8677756912327858       -2.0448137482337025      5.672329815648124
-1.1202396707684847       -2.01846373830974        6.35553344146959
-1.3808943996698213       -1.9463353720160699      6.9300533802300235
-2.4122074973444945       -1.8265207833513917      8.172277922042479
-2.1722334251830304       -2.1834583064957047      7.721860152201423
-1.7109447910791769       -2.067269648286285       7.300387701469339
-2.375800036095334        -2.6437720946543246      7.67495890877433
-2.6688354389265054       -3.106327597199387       7.755901040518936
-0.7719886211702347       -2.225186064637391       5.270038831110174
-0.6199651493021068       -2.3196638580547955      4.7854555267220915
-0.4642160381117315       -2.355332045651952       4.264532670037043
-2.664277381306553        -4.051746795148873       7.614428411416131
-2.3680536226448563       -4.527521356146179       7.4203486258595985
-2.074074074074076        -5                       7.250683517049531
-7.524314107750701        2.927023301573244        10.7705771229879
-8                        3.235294117647051        10.813619542215624
-7.520053719583547        3.49127265884537         10.86037130441403
-8                        3.8235294117646963       10.890704412285281
-7.055734630128761        2.0468456720378985       10.603028558825038
-7.058341574055326        2.626171201308585        10.736290388694337
-1.7440873128593524       -0.8883308834389557      8.772267121082388
-1.5524853264947323       -0.6348159056958036      9.088575965938803
-1.3632081176855326       -0.42383820593961485     9.392103849472202
-1.2164810310246694       -0.2733170880253931      9.622947163548403
-2.8581925306220897       -1.6047653587391617      8.613812675914227
-2.3471673930431267       -1.4231670713624245      8.473330818922763
-2.08779378753066         -0.8463786625739362      8.967735622329258
-2.30586992055707         -1.0457597829545406      8.832623473089521
-3.3195436908569493       -1.1690751762345304      9.114137461914991
-3.551936095847806        -0.8226876743737263      9.413809283517335
-4.308672381814284        -0.8409096851494787      9.531167277871843
-3.8852526534452556       -0.7009481040921919      9.551089470185403
-5.634558781014161        0.003566999237493036     10.001908945083052
-4.70039798950269         -0.559452347297241       9.719394736380371
-5.160478434141429        -0.27472479273208733     9.877788247077023
-6.120164384712681        0.8694976449183558       10.31102404219648
-5.647984371095171        0.5790237291505757       10.229683210511693
-6.586587003945371        1.7501177278659974       10.5559455959978
-6.126311738550127        1.4589798230430313       10.507419958036634
-0.3281142587956908       -2.3648838106620014      3.7829372871294145
-0.21754956660966113      -2.356893526043739       3.3752372443645924
0.05078330470032379       -2.05                    0
-0.09518483852984065      -2.3497659537909326      3.0430882681461813
-0.04150443935508732      -2.2397804832673054      2.169808581564638
0.09982998685497028       -2.142928812066141       1.3368769675776726
0.04717855415788655       -2.208837520699757       1.896853252398675
-0.1439985611230794       -1.7671003077808385      2.9723926527798885
0.05078330470032263       -1.95                    0
0.0025826844107805034     -1.860797696017543       1.4225832605314788
-0.0501561605676583       -1.794716431459819       2.3806475023035327
-0.5895182718562063       -1.454851547021962       6.389133045724171
-0.6890881931396972       -1.2443809849888234      7.348105959924433
-0.41954235258486217      -1.4787093594607998      5.927719359313302
-0.21198592635105767      -1.6681829812878162      4.1436641278362565
-0.328540471934616        -1.5688659363712447      5.196214099703095
-2.3677680358013022       -3.580528038790619       7.46181312977845
-1.0352838227142134       -2.2777948002892985      5.985605996548556
-1.3596466429340521       -2.268861237278767       6.63954206262552
-1.7606368926366034       -2.5840959713134963      7.083969719075875
-2.0726664502465066       -3.109565650712413       7.287189271952285
-0.40887432107027527      -2.4831111650000843      4.381014231158368
-0.8092622383566237       -2.460224695859578       5.445329507168844
-0.5913946783347981       -2.4870897587779255      4.895030968020951
-2.065902496862261        -4.056833504182273       7.2369892527912905
-1.7723751588917396       -4.5298058142743445      7.071827786755995
-1.4814814814814827       -5                       6.9272124481150685
-7.463161174804897        4.113793152045382        10.93064776230502
-8                        4.411764705882343        10.93780762447428
-7.592783799806158        4.619383740069493        10.954588038550762
-8                        5                        10.953654046711621
-7.055032290650232        3.1887349818386217       10.842228744201707
-7.077865600667341        3.6591443060748623       10.908624761553543
-6.585304643825109        2.332180942122391        10.708925653488434
-6.602788615064544        2.9159513398259307       10.835331462231489
-1.8739467293915342       -0.607274842568811       9.20441970423226
-2.147852979309208        -0.5977995619580673      9.285984052055493
-1.6624467356229935       -0.3725777454621159      9.488689424543857
-1.4247035189083987       -0.19252565120674323     9.731186207089698
-2.7550029863722          -1.049042157048249       9.015146552755764
-2.4130894833151166       -0.7508529164238149      9.187742232810232
-3.1867624698353247       -0.7006024755328776      9.429724322490744
-2.358982132542982        -0.45425315052877474     9.496404620061552
-3.566652421571466        -0.3807050996801222      9.72644325201095
-4.144321247759039        -0.2883982473617758      9.828493334819116
-5.158679083840472        0.312253294079776        10.139946659651565
-4.672989274226564        0.043053410095614725     10.022429169317734
-5.667325922538187        1.144856059611379        10.442931940665035
-5.196234784172155        0.8557354095991151       10.373882489023577
-6.110090309068891        2.033165290549578        10.682230262955763
-5.687187843483656        1.7083617982530712       10.637008038436626
0.09447640759312506       -1.850720178457008       1.729261327740091
-0.27484806495758324      -2.477497135175681       4.018826929352421
-0.15892051970118254      -2.4369526456268575      3.6121327123423286
-0.044875237239184226     -2.477039845634079       3.669696074115627
0.15                      -1.95                    0
0.15                      -2.05                    0
0.19450078821465164       -2.163583574509626       2.0866030757296454
0.04103702188462942       -2.332595451675927       2.870875686738558
0.1327404399158156        -2.2462735086251238      2.427421306909501
-0.05744463980279247      -1.6732575254070285      3.7431990976247853
0.0400516534280012        -1.759645911271996       2.797919593270541
-0.4306978678962846       -1.3172706660862352      6.7725290839927235
-0.26489319189348504      -1.4261134087131302      5.9543985854983035
-0.15383986488083956      -1.5470371988013916      4.962274763272998
-1.7698097213651225       -3.5910104478584124      7.01244552132201
-1.1514713952756508       -2.6850646919964656      6.210793647443127
-1.4787988709983189       -3.124035921321889       6.707837412051845
-0.3307760320373238       -2.5979533161296517      4.498763904076348
-0.4640369621007798       -2.6159797839675285      4.806554948904682
-0.6774358568446037       -2.758012348117961       5.429411880399236
-1.4668280056515448       -4.067148403223774       6.8489406870872145
-1.1779112726362158       -4.527331622093839       6.753195212827214
-0.8888888888888893       -5                       6.662661800974611
-6.824762041167283        4.06895989323829         10.97594644539751
-7.093350416818486        4.571360842419738        10.98289078222552
-7.407407407407408        5                        10.96980411530653
-6.547030573047273        3.5127749976479916       10.943569513464016
-6.105386079537674        2.616443516203567        10.834153514059269
-6.164036435108074        3.1091800984922613       10.93007992353213
-2.0492064135680605       -0.30392966270876043     9.625566740583329
-1.7111303076897022       -0.07308220465296227     9.902103704440476
-1.4298350012903656       0.0608997975963139       10.085224816360023
-2.7410027162433788       -0.48241622440881543     9.53503375889372
-3.1393444674596966       -0.31652521684187035     9.735435287247284
-2.443759070279145        -0.1362673871444157      9.853477512217369
-3.316942348628608        -0.04203414364237586     9.967372633534938
-4.2017626550573945       0.3255418268700668       10.19109136242753
-3.7124935797658285       0.10287869802561353      10.071225553589619
-4.652248281362102        0.6812224715742693       10.346223076014594
-5.226953715063899        1.3984480787939708       10.590445417427743
-4.849983975799286        1.1534556987348268       10.54380652101528
-5.553204216078902        2.2916452329094663       10.838701353651702
-5.233173944267381        1.855086042936639        10.757638202589725
0.197211188004394         -1.8373315968288721      2.5032527868314194
0.15097782226779335       -1.7529088850740306      3.1490506328785277
0.2638441154036213        -1.906075176207805       2.5129231895782813
0.27688549145264946       -1.8313460950150937      3.1592519854388095
-0.16222553191283226      -2.6152033702060606      4.30142514790539
0.005361328348070616      -2.6023115668632597      4.169520427765496
0.09755452502367104       -2.49334953150925        3.7803671041835396
0.2578259070376741        -2.0009064862316657      2.042832268591988
0.2668186947987485        -2.097831381212739       2.327316772469249
0.27994197131932524       -2.18391510725925        2.815773720962559
0.23767285671401234       -2.260571856503022       2.961054226090594
0.1762234316687434        -2.3691238362962688      3.320645097054698
-0.0034747043060265456    -1.5432206268204722      4.870423291633059
0.10645463325241851       -1.629524896764091       4.215754485243914
-0.05670025499705971      -1.4025827142086569      5.928116100408449
-1.166894468630802        -3.607951168919507       6.53594778639989
-0.928396245099226        -3.12401588906391        6.089900984432901
-0.3443344331090585       -2.7980240216500554      4.981156555937132
-0.5479328833217723       -3.0511779798049288      5.6038707287767355
-0.8686871203876354       -4.045603921544459       6.500391543721409